Title

450 atoms
458 bonds
878 angles
1875 dihedrals
102 impropers

11 atom types
14 bond types
9 angle types
35 dihedral types
3 improper types
-8.258999825 91.74100018 xlo xhi
-3.33100009 96.66899991 ylo yhi
-17.53300095 82.46699905 zlo zhi
0.0 0.0 0.0 xy xz yz

Masses

1	15.99943
2	12.01078
3	14.00672
4	12.01078
5	1.007947
6	1.007947
7	1.007947
8	15.99943
9	12.01078
10	15.99943
11	1.007947


Pair Coeffs

1	0.2102061	3.0398122
2	0.086879315	3.4806469
3	0.16769152	3.206876
4	0.10884061	3.3795318
5	0.014090815	1.1034277
6	0.015779483	2.6445434
7	0.016409246	2.5832257
8	0.16846514	3.0251065
9	0.21	3.3996695
10	0.20947353	2.99716
11	1.2326e-05	0.53453923

Bond Coeffs

1 harmonic	582.698766451	1.225198386222
2 harmonic	492.76746816345	1.381897776683
3 harmonic	301.15400723785	1.345741232799
4 harmonic	352.0565580496	1.450098586273
5 harmonic	505.144496193	1.019481865027
6 harmonic	264.62148576755	1.52190126495
7 harmonic	370.04670688625	1.093899492634
8 harmonic	279.1350963404	1.454628925034
9 harmonic	366.7408841747	1.425895053732
10 harmonic	300.03137914615	1.451203938761
11 harmonic	366.34047229585	1.464762957261
12 harmonic	602.81384337	1.196112346392
13 harmonic	329.96998057905	1.427343958716
14 harmonic	543.5267831885	0.9716763312559


Angle Coeffs

1 harmonic	57.8982893754	126.8062420451
2 harmonic	201.41175231035	127.4691416191
3 harmonic	55.42182150775	117.3465570514
4 harmonic	63.44422595415	115.5071327674
5 harmonic	65.09061609600001	110.3538806181
6 harmonic	53.20531626545	116.5475862634
7 harmonic	48.776492647595	115.6030999533
8 harmonic	55.07882548015	112.8714009681
9 harmonic	33.56981613361	180


Dihedral Coeffs

1 fourier 1	1.809047390003	2	180
2 fourier 1	-0.04816277792592	1	0
3 fourier 1	0.4860993122944	2	180
4 fourier 1	0.8916986138746	1	0
5 fourier 1	1.163809172478	2	180
6 fourier 1	0.1679186987369	1	180
7 fourier 1	-0.1488678166443	4	180
8 fourier 1	-0.1230328948768	3	180
9 fourier 1	0.2939295466901	2	0
10 fourier 1	-0.3024127022865	1	0
11 fourier 1	0.182238503271	2	0
12 fourier 1	0.02972342374561	3	0
13 fourier 1	0.1918272375143	3	0
14 fourier 1	0.9202179876409	1	180
15 fourier 1	0.0473758381877	3	0
16 fourier 1	2.779853741805	2	180
17 fourier 1	0.1155372516788	3	0
18 fourier 1	0.09223874044423	3	0
19 fourier 1	0.3159935921949	2	180
20 fourier 1	0.3247796806857	1	180
21 fourier 1	0.1040663847541	3	0
22 fourier 1	3.101948770557	2	180
23 fourier 1	-0.4252153282372	1	0
24 fourier 1	0.9974165607242	2	180
25 fourier 1	2.348375642009	2	180
26 fourier 1	1.256156174911	1	0
27 fourier 1	0.1911926717192	3	0
28 fourier 1	0.1115525666802	3	0
29 fourier 1	0.3432490222662	1	0
30 fourier 1	0.457973137376	1	0
31 fourier 1	-1.382973039546	1	0
32 fourier 1	0	1	0
33 fourier 1	0.3445382149273	3	0
34 fourier 1	0.1364556373303	1	0
35 fourier 1	0.3026390167484	3	0


Improper Coeffs

1 3.5	-1	2
2 0.3333333333333333	-1	2
3 0.3666666666666667	-1	2


Atoms

1	1	1	-0.622527	4.3569999	-0.79299998	2.1559999
2	1	2	0.78279698	4.2280002	-1.342	1.029
3	1	3	-0.44342101	3.3629999	-0.78799999	0.032000002
4	1	4	-0.0056520002	2.552	0.41299999	0.24699999
5	1	4	-0.0096310005	1.054	0.071000002	0.51599997
6	1	4	-0.208078	0.30000001	1.416	0.71100003
7	1	4	0.124298	-1.234	1.276	0.70899999
8	1	3	-0.57099599	-1.855	2.598	0.86000001
9	1	2	0.55449897	-3.2219999	2.7650001	1.2539999
10	1	1	-0.69466698	-3.95	1.7690001	1.506
11	1	5	0.30925	-1.288	3.4630001	0.713
12	1	4	-0.211702	-1.705	0.63200003	-0.60600001
13	1	4	-0.029801	-1.071	-0.75700003	-0.87099999
14	1	4	-0.212685	0.48199999	-0.69700003	-0.72000003
15	1	6	0.109217	0.89200002	-1.7309999	-0.74599999
16	1	6	0.109217	0.88200003	-0.19499999	-1.63
17	1	4	-0.173218	-1.7	-1.836	0.045000002
18	1	6	0.072121002	-2.7620001	-2.01	-0.23100001
19	1	6	0.072121002	-1.707	-1.55	1.109
20	1	6	0.072121002	-1.159	-2.802	-0.056000002
21	1	4	-0.173218	-1.395	-1.163	-2.3280001
22	1	6	0.072121002	-0.97899997	-0.42899999	-3.052
23	1	6	0.072121002	-0.963	-2.161	-2.562
24	1	6	0.072121002	-2.494	-1.212	-2.4920001
25	1	6	0.109045	-1.448	1.324	-1.4400001
26	1	6	0.109045	-2.813	0.537	-0.597
27	1	7	0.038995001	-1.543	0.65600002	1.574
28	1	6	0.107493	0.58200002	2.118	-0.106
29	1	6	0.107493	0.61799997	1.888	1.668
30	1	4	-0.171434	0.98699999	-0.77999997	1.8099999
31	1	6	0.069027998	1.6210001	-0.329	2.6040001
32	1	6	0.069027998	-0.026000001	-0.83999997	2.2390001
33	1	6	0.069027998	1.349	-1.813	1.625
34	1	7	0.070642002	2.641	1.056	-0.65600002
35	1	7	0.070642002	2.967	1.013	1.087
36	1	5	0.321183	3.2920001	-1.285	-0.884
37	1	8	-0.50101298	9.6009998	-0.921	-0.73000002
38	1	4	0.115079	8.3109999	-0.611	-1.183
39	1	4	-0.139053	7.2950001	-1.601	-0.60900003
40	1	4	-0.139053	5.8800001	-1.298	-1.118
41	1	4	0.111907	4.8540001	-2.2980001	-0.574
42	1	8	-0.50015199	4.7589998	-2.2090001	0.82300001
43	1	7	0.082512997	5.1560001	-3.3310001	-0.84899998
44	1	7	0.082512997	3.8610001	-2.1040001	-1.038
45	1	6	0.090315998	5.5840001	-0.26899999	-0.81800002
46	1	6	0.090315998	5.869	-1.351	-2.2279999
47	1	6	0.090315998	7.3150001	-1.536	0.50099999
48	1	6	0.090315998	7.586	-2.632	-0.90700001
49	1	7	0.082512997	8.3039999	-0.67400002	-2.293
50	1	7	0.082512997	8.0419998	0.43200001	-0.89600003
51	1	1	-0.622527	13.311	5.8239999	4.3060002
52	1	2	0.78279698	13.809	5.013	5.132
53	1	3	-0.44342101	14.024	3.641	4.7820001
54	1	4	-0.0056520002	13.662	3.076	3.4790001
55	1	4	-0.0096310005	12.346	2.2409999	3.5450001
56	1	4	-0.206974	12.078	1.686	2.118
57	1	4	0.126167	10.974	0.61400002	2.0639999
58	1	3	-0.52065998	10.821	0.125	0.68900001
59	1	2	0.80649501	9.6590004	-0.58899999	0.25099999
60	1	1	-0.61965799	8.7010002	-0.81400001	1.038
61	1	5	0.31244099	11.559	0.32499999	-0.023
62	1	4	-0.210604	11.33	-0.56	2.9920001
63	1	4	-0.029801	11.547	-0.133	4.4660001
64	1	4	-0.212685	12.544	1.0650001	4.5570002
65	1	6	0.109217	12.551	1.4579999	5.5970001
66	1	6	0.109217	13.567	0.65700001	4.3860002
67	1	4	-0.173218	10.198	0.184	5.1560001
68	1	6	0.072121002	9.592	-0.741	5.2690001
69	1	6	0.072121002	9.573	0.88599998	4.5809999
70	1	6	0.072121002	10.364	0.60900003	6.1690001
71	1	4	-0.173218	12.168	-1.33	5.2259998
72	1	6	0.072121002	13.145	-1.623	4.7839999
73	1	6	0.072121002	12.338	-1.0700001	6.2940001
74	1	6	0.072121002	11.499	-2.217	5.184
75	1	6	0.109045	12.257	-1.038	2.602
76	1	6	0.109045	10.527	-1.3279999	2.944
77	1	7	0.041051	10.011	1.068	2.3710001
78	1	6	0.107493	13.014	1.2359999	1.717
79	1	6	0.107493	11.803	2.523	1.437
80	1	4	-0.171434	11.202	3.194	3.9790001
81	1	6	0.069027998	11.248	4.1430001	3.4030001
82	1	6	0.069027998	10.198	2.7809999	3.7920001
83	1	6	0.069027998	11.28	3.4419999	5.059
84	1	7	0.070642002	14.504	2.4360001	3.135
85	1	7	0.070642002	13.568	3.885	2.721
86	1	5	0.321183	14.438	3.0109999	5.506
87	1	8	-0.50101298	18.823	7.5469999	5.888
88	1	4	0.115079	18.315001	6.2820001	5.5630002
89	1	4	-0.139053	16.945999	6.0770001	6.217
90	1	4	-0.139053	16.386	4.684	5.9000001
91	1	4	0.111907	15.028	4.4520001	6.572
92	1	8	-0.50015199	14.066	5.3460002	6.0799999
93	1	7	0.082512997	15.124	4.5939999	7.6700001
94	1	7	0.082512997	14.7	3.4030001	6.3969998
95	1	6	0.090315998	16.277	4.5630002	4.8000002
96	1	6	0.090315998	17.096001	3.9100001	6.2639999
97	1	6	0.090315998	16.246	6.855	5.8429999
98	1	6	0.090315998	17.049999	6.1950002	7.3179998
99	1	7	0.082512997	19.024	5.5120001	5.9359999
100	1	7	0.082512997	18.236	6.1700001	4.4569998
101	1	1	-0.622527	20.007	12.897	-1.503
102	1	2	0.78279698	19.576	13.918	-0.90499997
103	1	3	-0.44342101	19.563999	13.987	0.52499998
104	1	4	-0.0056520002	20.011	12.89	1.388
105	1	4	-0.0096310005	18.813999	12.099	2.003
106	1	4	-0.206974	19.41	10.981	2.902
107	1	4	0.126167	18.372	10.286	3.803
108	1	3	-0.52065998	19.033001	9.2770004	4.6389999
109	1	2	0.80649501	18.311001	8.2320004	5.3000002
110	1	1	-0.61965799	17.062	8.1269999	5.1739998
111	1	5	0.31244099	20.073999	9.2819996	4.7410002
112	1	4	-0.210604	17.671	11.32	4.6999998
113	1	4	-0.029801	16.972	12.451	3.902
114	1	4	-0.212685	17.948	13.081	2.859
115	1	6	0.109217	17.379	13.764	2.191
116	1	6	0.109217	18.653999	13.734	3.4200001
117	1	4	-0.173218	15.67	11.938	3.24
118	1	6	0.072121002	14.91	11.695	4.0139999
119	1	6	0.072121002	15.816	11.013	2.6589999
120	1	6	0.072121002	15.239	12.711	2.569
121	1	4	-0.173218	16.559999	13.559	4.901
122	1	6	0.072121002	17.445999	13.977	5.4250002
123	1	6	0.072121002	16.047001	14.392	4.3720002
124	1	6	0.072121002	15.868	13.159	5.6750002
125	1	6	0.109045	18.436001	11.762	5.3790002
126	1	6	0.109045	16.924999	10.808	5.3460002
127	1	7	0.041051	17.631001	9.7639999	3.1659999
128	1	6	0.107493	20.197001	11.418	3.559
129	1	6	0.107493	19.908001	10.216	2.267
130	1	4	-0.171434	18.004999	11.48	0.83399999
131	1	6	0.069027998	18.688999	11.001	0.1
132	1	6	0.069027998	17.313	10.686	1.1569999
133	1	6	0.069027998	17.417999	12.258	0.301
134	1	7	0.070642002	20.639999	13.321	2.198
135	1	7	0.070642002	20.677	12.201	0.82200003
136	1	5	0.321183	19.194	14.857	0.97000003
137	1	8	-0.50101298	23.285999	17.702999	-2.9159999
138	1	4	0.115079	22.785999	17.264	-1.683
139	1	4	-0.139053	21.344	16.773001	-1.841
140	1	4	-0.139053	20.764999	16.316999	-0.495
141	1	4	0.111907	19.312	15.849	-0.63099998
142	1	8	-0.50015199	19.225	14.721	-1.459
143	1	7	0.082512997	18.695	16.665001	-1.0650001
144	1	7	0.082512997	18.9	15.618	0.377
145	1	6	0.090315998	21.381001	15.489	-0.081
146	1	6	0.090315998	20.797001	17.164	0.22499999
147	1	6	0.090315998	21.327	15.926	-2.5610001
148	1	6	0.090315998	20.723	17.599001	-2.253
149	1	7	0.082512997	22.812	18.115999	-0.97000003
150	1	7	0.082512997	23.429001	16.452	-1.273
151	1	1	-0.622527	30.516001	12.777	-5.7639999
152	1	2	0.78279698	30.114	12.769	-6.9569998
153	1	3	-0.44342101	29.181999	13.748	-7.4299998
154	1	4	-0.0056520002	28.608999	14.792	-6.5760002
155	1	4	-0.0096310005	27.145	14.464	-6.1459999
156	1	4	-0.206974	26.646	15.642	-5.2639999
157	1	4	0.126167	25.132	15.614	-4.9850001
158	1	3	-0.52065998	24.750999	16.782	-4.1820002
159	1	2	0.80649501	23.514	16.851999	-3.464
160	1	1	-0.61965799	22.700001	15.891	-3.4809999
161	1	5	0.31244099	25.408001	17.59	-4.0879998
162	1	4	-0.210604	24.349001	15.621	-6.309
163	1	4	-0.029801	24.712999	14.439	-7.244
164	1	4	-0.212685	26.259001	14.331	-7.428
165	1	6	0.109217	26.5	13.383	-7.9580002
166	1	6	0.109217	26.566999	15.146	-8.1219997
167	1	4	-0.173218	24.098	13.115	-6.7270002
168	1	6	0.072121002	22.99	13.143	-6.8080001
169	1	6	0.072121002	24.318001	12.922	-5.665
170	1	6	0.072121002	24.462999	12.252	-7.3249998
171	1	4	-0.173218	24.084	14.712	-8.6309996
172	1	6	0.072121002	24.474001	15.657	-9.0690002
173	1	6	0.072121002	24.315001	13.884	-9.3360004
174	1	6	0.072121002	22.979	14.808	-8.5539999
175	1	6	0.109045	24.559	16.584	-6.8280001
176	1	6	0.109045	23.257999	15.601	-6.0960002
177	1	7	0.041051	24.888	14.706	-4.3990002
178	1	6	0.107493	26.885	16.606001	-5.7690001
179	1	6	0.107493	27.193001	15.642	-4.2950001
180	1	4	-0.171434	27.177999	13.149	-5.3239999
181	1	6	0.069027998	28	13.179	-4.5770001
182	1	6	0.069027998	26.257	12.976	-4.7449999
183	1	6	0.069027998	27.344	12.272	-5.9840002
184	1	7	0.070642002	28.635	15.751	-7.1389999
185	1	7	0.070642002	29.247999	14.95	-5.6789999
186	1	5	0.321183	28.879	13.693	-8.4289999
187	1	8	-0.50101298	35.101002	13.558	-9.533
188	1	4	0.115079	33.813999	14.113	-9.5270004
189	1	4	-0.139053	32.777	13.039	-9.1920004
190	1	4	-0.139053	31.356001	13.618	-9.21
191	1	4	0.111907	30.302	12.548	-8.9040003
192	1	8	-0.50015199	30.465	12.041	-7.6069999
193	1	7	0.082512997	30.393	11.713	-9.632
194	1	7	0.082512997	29.284	12.984	-9.0200005
195	1	6	0.090315998	31.273001	14.439	-8.4639997
196	1	6	0.090315998	31.145	14.043	-10.216
197	1	6	0.090315998	32.997002	12.624	-8.184
198	1	6	0.090315998	32.853001	12.216	-9.9359999
199	1	7	0.082512997	33.605999	14.528	-10.536
200	1	7	0.082512997	33.757999	14.949	-8.7919998
201	1	1	-0.622527	40.595001	17.274	-3.1570001
202	1	2	0.78279698	41.099998	16.159	-2.8599999
203	1	3	-0.44342101	41.044998	15.056	-3.7709999
204	1	4	-0.0056520002	40.382	15.123	-5.0760002
205	1	4	-0.0096310005	38.987	14.423	-5.0650001
206	1	4	-0.206974	38.396	14.546	-6.4970002
207	1	4	0.126167	37.152	13.67	-6.7340002
208	1	3	-0.52065998	36.691002	13.823	-8.1190004
209	1	2	0.80649501	35.377998	13.438	-8.5410004
210	1	1	-0.61965799	34.548	12.961	-7.7210002
211	1	5	0.31244099	37.317001	14.26	-8.8339996
212	1	4	-0.210604	37.483002	12.193	-6.461
213	1	4	-0.029801	38.014999	11.938	-5.0279999
214	1	4	-0.212685	39.18	12.919	-4.684
215	1	6	0.109217	39.425999	12.831	-3.602
216	1	6	0.109217	40.084999	12.559	-5.2249999
217	1	4	-0.173218	36.868	12.016	-3.99
218	1	6	0.072121002	36.16	11.171	-4.1290002
219	1	6	0.072121002	36.264999	12.934	-4.0799999
220	1	6	0.072121002	37.269001	11.959	-2.9549999
221	1	4	-0.173218	38.571999	10.495	-4.9710002
222	1	6	0.072121002	39.402	10.357	-5.697
223	1	6	0.072121002	38.959999	10.265	-3.9549999
224	1	6	0.072121002	37.779999	9.7539997	-5.2179999
225	1	6	0.109045	38.247002	11.869	-7.204
226	1	6	0.109045	36.578999	11.57	-6.6360002
227	1	7	0.041051	36.335999	14.011	-6.066
228	1	6	0.107493	39.171001	14.251	-7.2410002
229	1	6	0.107493	38.136002	15.608	-6.704
230	1	4	-0.171434	38.091999	15.171	-4.0440001
231	1	6	0.069027998	38.178001	16.27	-4.1830001
232	1	6	0.069027998	37.02	14.941	-4.1560001
233	1	6	0.069027998	38.391998	14.931	-3.0020001
234	1	7	0.070642002	41.046001	14.638	-5.8260002
235	1	7	0.070642002	40.279999	16.181	-5.4029999
236	1	5	0.321183	41.478001	14.153	-3.473
237	1	8	-0.50101298	46.492001	17.809999	-2.27
238	1	4	0.115079	45.751999	16.837999	-2.957
239	1	4	-0.139053	44.501999	16.461	-2.1570001
240	1	4	-0.139053	43.693001	15.373	-2.8770001
241	1	4	0.111907	42.452999	14.964	-2.075
242	1	8	-0.50015199	41.564999	16.041	-1.9400001
243	1	7	0.082512997	42.757999	14.619	-1.063
244	1	7	0.082512997	41.946999	14.111	-2.5810001
245	1	6	0.090315998	43.377998	15.738	-3.8789999
246	1	6	0.090315998	44.332001	14.475	-3.0220001
247	1	6	0.090315998	43.872002	17.367001	-2.0220001
248	1	6	0.090315998	44.812	16.093	-1.154
249	1	7	0.082512997	46.391998	15.94	-3.0910001
250	1	7	0.082512997	45.466999	17.212	-3.967
251	1	1	-0.622527	47.164001	25.708	-6.941
252	1	2	0.78279698	47	26.403	-5.9029999
253	1	3	-0.44342101	47.247002	25.858	-4.6020002
254	1	4	-0.0056520002	47.667	24.472	-4.3759999
255	1	4	-0.0096310005	46.491001	23.573	-3.885
256	1	4	-0.206974	47.060001	22.143	-3.668
257	1	4	0.126167	46.101002	21.198	-2.9200001
258	1	3	-0.52065998	46.738998	19.889999	-2.7290001
259	1	2	0.80649501	45.993999	18.711	-2.404
260	1	1	-0.61965799	44.741001	18.747999	-2.2839999
261	1	5	0.31244099	47.77	19.785	-2.865
262	1	4	-0.210604	45.729	21.795	-1.552
263	1	4	-0.029801	45.078999	23.198	-1.651
264	1	4	-0.212685	45.942001	24.149	-2.539
265	1	6	0.109217	45.375	25.086	-2.7320001
266	1	6	0.109217	46.825001	24.455999	-1.932
267	1	4	-0.173218	43.619999	23.099001	-2.1600001
268	1	6	0.072121002	42.978001	22.598	-1.403
269	1	6	0.072121002	43.522999	22.502001	-3.0799999
270	1	6	0.072121002	43.200001	24.110001	-2.349
271	1	4	-0.173218	45.015999	23.799999	-0.227
272	1	6	0.072121002	46.033001	23.9	0.213
273	1	6	0.072121002	44.549999	24.809999	-0.248
274	1	6	0.072121002	44.417999	23.153999	0.45199999
275	1	6	0.109045	46.657001	21.856001	-0.93900001
276	1	6	0.109045	45.037998	21.104	-1.02
277	1	7	0.041051	45.191002	21.045	-3.533
278	1	6	0.107493	48.005001	22.209	-3.082
279	1	6	0.107493	47.32	21.691	-4.651
280	1	4	-0.171434	45.408001	23.561001	-4.9949999
281	1	6	0.069027998	45.875	23.398001	-5.9899998
282	1	6	0.069027998	44.672001	22.750999	-4.8759999
283	1	6	0.069027998	44.860001	24.527	-5.026
284	1	7	0.070642002	48.484001	24.478001	-3.622
285	1	7	0.070642002	48.113998	24.049	-5.303
286	1	5	0.321183	47.092999	26.476999	-3.7750001
287	1	8	-0.50101298	50.828999	30.441999	-6.9809999
288	1	4	0.115079	50.490002	29.552	-5.9520001
289	1	4	-0.139053	48.986	29.267	-5.973
290	1	4	-0.139053	48.588001	28.32	-4.8340001
291	1	4	0.111907	47.080002	28.047001	-4.8239999
292	1	8	-0.50015199	46.681999	27.386	-5.9949999
293	1	7	0.082512997	46.526001	29.007	-4.7449999
294	1	7	0.082512997	46.818001	27.434999	-3.931
295	1	6	0.090315998	49.134998	27.357	-4.9349999
296	1	6	0.090315998	48.869999	28.775999	-3.8599999
297	1	6	0.090315998	48.717999	28.809999	-6.9499998
298	1	6	0.090315998	48.433998	30.226999	-5.8699999
299	1	7	0.082512997	50.766998	30.017	-4.9819999
300	1	7	0.082512997	51.066002	28.604	-6.0570002
301	1	1	-0.622527	56.637001	26.75	-13.086
302	1	2	0.78279698	56.037998	27.275	-14.062
303	1	3	-0.44342101	55.195	28.417999	-13.882
304	1	4	-0.0056520002	54.942001	29.035	-12.577
305	1	4	-0.0096310005	53.542	28.646999	-12.004
306	1	4	-0.206974	53.386002	29.368	-10.637
307	1	4	0.126167	51.956001	29.319	-10.067
308	1	3	-0.52065998	51.897999	30.056	-8.7989998
309	1	2	0.80649501	50.828999	29.892	-7.8610001
310	1	1	-0.61965799	49.889999	29.082001	-8.0839996
311	1	5	0.31244099	52.674999	30.704	-8.5349998
312	1	4	-0.210604	50.965	29.937	-11.068
313	1	4	-0.029801	50.980999	29.245001	-12.455
314	1	4	-0.212685	52.438	29.128	-13.002
315	1	6	0.109217	52.438999	28.483	-13.908
316	1	6	0.109217	52.738998	30.139999	-13.357
317	1	4	-0.173218	50.273998	27.868	-12.394
318	1	6	0.072121002	49.185001	27.997999	-12.211
319	1	6	0.072121002	50.643002	27.228001	-11.577
320	1	6	0.072121002	50.396	27.320999	-13.353
321	1	4	-0.173218	50.168999	30.121	-13.439
322	1	6	0.072121002	50.613998	31.136	-13.533
323	1	6	0.072121002	50.147999	29.658001	-14.449
324	1	6	0.072121002	49.120998	30.243999	-13.089
325	1	6	0.109045	51.223	31.014	-11.187
326	1	6	0.109045	49.937	29.898001	-10.647
327	1	7	0.041051	51.683998	28.264999	-9.8590002
328	1	6	0.107493	53.674	30.438	-10.75
329	1	6	0.107493	54.084999	28.921	-9.8959999
330	1	4	-0.171434	53.52	27.108999	-11.811
331	1	6	0.069027998	54.453999	26.766001	-11.316
332	1	6	0.069027998	52.698002	26.764	-11.164
333	1	6	0.069027998	53.436001	26.587	-12.788
334	1	7	0.070642002	55.013	30.138	-12.696
335	1	7	0.070642002	55.743	28.756001	-11.857
336	1	5	0.321183	54.720001	28.813	-14.725
337	1	8	-0.50101298	60.564999	28.768	-17.129
338	1	4	0.115079	59.396	29.348	-16.617001
339	1	4	-0.139053	58.283001	28.299999	-16.524
340	1	4	-0.139053	56.984001	28.921	-15.994
341	1	4	0.111907	55.851002	27.891001	-15.922
342	1	8	-0.50015199	56.159	26.871	-15.01
343	1	7	0.082512997	55.688999	27.441	-16.924999
344	1	7	0.082512997	54.904999	28.398001	-15.625
345	1	6	0.090315998	57.154999	29.35	-14.983
346	1	6	0.090315998	56.667999	29.746	-16.67
347	1	6	0.090315998	58.611	27.483999	-15.844
348	1	6	0.090315998	58.105999	27.868999	-17.533001
349	1	7	0.082512997	59.080002	30.165001	-17.299999
350	1	7	0.082512997	59.594002	29.792999	-15.615
351	1	1	-0.622527	67.572998	29.066	-11.176
352	1	2	0.78279698	67.949997	27.900999	-11.472
353	1	3	-0.44342101	67.572998	27.296	-12.714
354	1	4	-0.0056520002	66.711998	27.952999	-13.701
355	1	4	-0.0096310005	65.250999	27.405001	-13.666
356	1	4	-0.206974	64.445999	28.160999	-14.759
357	1	4	0.126167	63.063	27.549999	-15.049
358	1	3	-0.52065998	62.396999	28.306	-16.115999
359	1	2	0.80649501	60.987999	28.219999	-16.357
360	1	1	-0.61965799	60.250999	27.493	-15.639
361	1	5	0.31244099	62.948002	28.965	-16.712999
362	1	4	-0.210604	63.212002	26.08	-15.474
363	1	4	-0.029801	63.938999	25.205999	-14.42
364	1	4	-0.212685	65.279999	25.872	-13.976
365	1	6	0.109217	65.694	25.318001	-13.105
366	1	6	0.109217	66.013	25.719999	-14.801
367	1	4	-0.173218	63.014999	24.908001	-13.215
368	1	6	0.072121002	62.174999	24.247999	-13.523
369	1	6	0.072121002	62.549	25.813	-12.793
370	1	6	0.072121002	63.576	24.391001	-12.407
371	1	4	-0.173218	64.276001	23.844	-15.074
372	1	6	0.072121002	64.936996	23.976	-15.958
373	1	6	0.072121002	64.795998	23.18	-14.35
374	1	6	0.072121002	63.352001	23.33	-15.418
375	1	6	0.109045	63.778	26.054001	-16.433001
376	1	6	0.109045	62.208	25.649	-15.682
377	1	7	0.041051	62.435001	27.625	-14.138
378	1	6	0.107493	65.027	28.163	-15.709
379	1	6	0.107493	64.316002	29.225	-14.458
380	1	4	-0.171434	64.667999	27.702	-12.261
381	1	6	0.069027998	64.891998	28.747999	-11.961
382	1	6	0.069027998	63.570999	27.610001	-12.217
383	1	6	0.069027998	65.105003	27.023001	-11.498
384	1	7	0.070642002	67.155998	27.792	-14.708
385	1	7	0.070642002	66.713997	29.054001	-13.542
386	1	5	0.321183	67.912003	26.327	-12.909
387	1	8	-0.172961	73.546997	28.802	-11.47
388	1	4	0.033399001	72.561996	28.263	-12.309
389	1	4	-0.145099	71.428001	27.660999	-11.475
390	1	4	-0.13788401	70.353996	27.035999	-12.375
391	1	4	0.111974	69.223999	26.403	-11.554
392	1	8	-0.50015199	68.543999	27.374001	-10.805
393	1	7	0.082512997	69.643997	25.643	-10.862
394	1	7	0.082512997	68.515999	25.879999	-12.236
395	1	6	0.090485997	69.928001	27.811001	-13.049
396	1	6	0.090485997	70.816002	26.246	-13.006
397	1	6	0.091519997	70.973999	28.461	-10.851
398	1	6	0.091519997	71.848	26.882	-10.801
399	1	7	0.082416996	73.028	27.468	-12.931
400	1	7	0.082416996	72.166	29.048	-12.993
401	1	1	-0.69466698	-4.8800001	3.905	1.466
402	1	2	0.55449897	-3.635	3.7609999	1.3430001
403	1	3	-0.57099599	-2.76	4.895	1.325
404	1	4	0.124046	-3.2539999	6.2729998	1.426
405	1	4	-0.211702	-2.1059999	7.224	1.798
406	1	4	-0.030332999	-2.6170001	8.6639996	2.096
407	1	4	-0.173218	-1.485	9.6820002	1.822
408	1	6	0.072121002	-1.809	10.711	2.089
409	1	6	0.072121002	-1.181	9.6890001	0.759
410	1	6	0.072121002	-0.58700001	9.4359999	2.4289999
411	1	4	-0.173218	-2.973	8.7729998	3.599
412	1	6	0.072121002	-3.3670001	9.7860003	3.835
413	1	6	0.072121002	-2.0780001	8.5950003	4.2350001
414	1	6	0.072121002	-3.7460001	8.0279999	3.882
415	1	4	-0.21132401	-3.8900001	9.0170002	1.251
416	1	4	0.022817001	-4.0500002	8.2480001	-0.101
417	1	4	-0.20799901	-3.9100001	6.697	0.093000002
418	1	6	0.107366	-3.329	6.2600002	-0.75
419	1	6	0.107366	-4.902	6.1999998	0.043000001
420	1	4	-0.169935	-2.9920001	8.7399998	-1.1210001
421	1	6	0.065664999	-3.223	8.3579998	-2.1400001
422	1	6	0.065664999	-1.978	8.375	-0.87599999
423	1	6	0.065664999	-2.9719999	9.8500004	-1.169
424	1	4	0.141689	-5.4439998	8.5819998	-0.71200001
425	1	3	-0.64663798	-6.5370002	8.1540003	0.161
426	1	9	0.59946197	-7.4109998	8.9700003	0.597
427	1	1	-0.48885199	-8.2589998	9.7639999	1.022
428	1	7	0.065530002	-5.513	9.6759996	-0.91799998
429	1	7	0.065530002	-5.5599999	8.059	-1.686
430	1	6	0.107905	-4.7859998	8.7869997	1.867
431	1	6	0.107905	-3.941	10.114	1.0700001
432	1	6	0.109045	-1.564	6.8179998	2.681
433	1	6	0.109045	-1.365	7.2270002	0.97000003
434	1	7	0.038995001	-4.0159998	6.316	2.2349999
435	1	5	0.30925	-1.733	4.7119999	1.2640001
436	1	8	-0.172961	73.190002	29.664	-11.131
437	1	4	0.03351	74.292999	30.511	-10.949
438	1	4	-0.139364	75.049004	30.128	-9.6739998
439	1	4	-0.16641399	76.242996	31.063	-9.4390001
440	1	4	0.086883999	76.994003	30.711	-8.1499996
441	1	10	-0.68247002	77.555	29.427999	-8.2320004
442	1	11	0.38124901	78.345001	29.5	-8.8290005
443	1	7	0.073187001	76.294998	30.745001	-7.2870002
444	1	7	0.073187001	77.791	31.466	-7.9650002
445	1	6	0.093984	76.944	31.004	-10.3
446	1	6	0.093984	75.878998	32.111	-9.3599997
447	1	6	0.091692001	75.407997	29.08	-9.7670002
448	1	6	0.091692001	74.352997	30.187	-8.809
449	1	7	0.082416996	73.922997	31.555	-10.862
450	1	7	0.082416996	74.970001	30.457001	-11.832

Bonds

1	1	1	2
2	2	2	3
3	3	2	42
4	4	3	4
5	5	3	36
6	6	4	5
7	7	4	34
8	7	4	35
9	6	5	6
10	6	5	30
11	6	5	14
12	6	6	7
13	7	6	28
14	7	6	29
15	4	7	8
16	6	7	12
17	7	7	27
18	2	8	9
19	5	8	11
20	1	9	10
21	8	9	402
22	6	12	13
23	7	12	25
24	7	12	26
25	6	13	14
26	6	13	17
27	6	13	21
28	7	14	15
29	7	14	16
30	7	17	18
31	7	17	19
32	7	17	20
33	7	21	22
34	7	21	23
35	7	21	24
36	7	30	31
37	7	30	32
38	7	30	33
39	9	37	38
40	3	37	59
41	6	38	39
42	7	38	49
43	7	38	50
44	6	39	40
45	7	39	47
46	7	39	48
47	6	40	41
48	7	40	45
49	7	40	46
50	9	41	42
51	7	41	43
52	7	41	44
53	1	51	52
54	2	52	53
55	3	52	92
56	4	53	54
57	5	53	86
58	6	54	55
59	7	54	84
60	7	54	85
61	6	55	56
62	6	55	80
63	6	55	64
64	6	56	57
65	7	56	78
66	7	56	79
67	4	57	58
68	6	57	62
69	7	57	77
70	2	58	59
71	5	58	61
72	1	59	60
73	6	62	63
74	7	62	75
75	7	62	76
76	6	63	64
77	6	63	67
78	6	63	71
79	7	64	65
80	7	64	66
81	7	67	68
82	7	67	69
83	7	67	70
84	7	71	72
85	7	71	73
86	7	71	74
87	7	80	81
88	7	80	82
89	7	80	83
90	9	87	88
91	3	87	109
92	6	88	89
93	7	88	99
94	7	88	100
95	6	89	90
96	7	89	97
97	7	89	98
98	6	90	91
99	7	90	95
100	7	90	96
101	9	91	92
102	7	91	93
103	7	91	94
104	1	101	102
105	2	102	103
106	3	102	142
107	4	103	104
108	5	103	136
109	6	104	105
110	7	104	134
111	7	104	135
112	6	105	106
113	6	105	130
114	6	105	114
115	6	106	107
116	7	106	128
117	7	106	129
118	4	107	108
119	6	107	112
120	7	107	127
121	2	108	109
122	5	108	111
123	1	109	110
124	6	112	113
125	7	112	125
126	7	112	126
127	6	113	114
128	6	113	117
129	6	113	121
130	7	114	115
131	7	114	116
132	7	117	118
133	7	117	119
134	7	117	120
135	7	121	122
136	7	121	123
137	7	121	124
138	7	130	131
139	7	130	132
140	7	130	133
141	9	137	138
142	3	137	159
143	6	138	139
144	7	138	149
145	7	138	150
146	6	139	140
147	7	139	147
148	7	139	148
149	6	140	141
150	7	140	145
151	7	140	146
152	9	141	142
153	7	141	143
154	7	141	144
155	1	151	152
156	2	152	153
157	3	152	192
158	4	153	154
159	5	153	186
160	6	154	155
161	7	154	184
162	7	154	185
163	6	155	156
164	6	155	180
165	6	155	164
166	6	156	157
167	7	156	178
168	7	156	179
169	4	157	158
170	6	157	162
171	7	157	177
172	2	158	159
173	5	158	161
174	1	159	160
175	6	162	163
176	7	162	175
177	7	162	176
178	6	163	164
179	6	163	167
180	6	163	171
181	7	164	165
182	7	164	166
183	7	167	168
184	7	167	169
185	7	167	170
186	7	171	172
187	7	171	173
188	7	171	174
189	7	180	181
190	7	180	182
191	7	180	183
192	9	187	188
193	3	187	209
194	6	188	189
195	7	188	199
196	7	188	200
197	6	189	190
198	7	189	197
199	7	189	198
200	6	190	191
201	7	190	195
202	7	190	196
203	9	191	192
204	7	191	193
205	7	191	194
206	1	201	202
207	2	202	203
208	3	202	242
209	4	203	204
210	5	203	236
211	6	204	205
212	7	204	234
213	7	204	235
214	6	205	206
215	6	205	230
216	6	205	214
217	6	206	207
218	7	206	228
219	7	206	229
220	4	207	208
221	6	207	212
222	7	207	227
223	2	208	209
224	5	208	211
225	1	209	210
226	6	212	213
227	7	212	225
228	7	212	226
229	6	213	214
230	6	213	217
231	6	213	221
232	7	214	215
233	7	214	216
234	7	217	218
235	7	217	219
236	7	217	220
237	7	221	222
238	7	221	223
239	7	221	224
240	7	230	231
241	7	230	232
242	7	230	233
243	9	237	238
244	3	237	259
245	6	238	239
246	7	238	249
247	7	238	250
248	6	239	240
249	7	239	247
250	7	239	248
251	6	240	241
252	7	240	245
253	7	240	246
254	9	241	242
255	7	241	243
256	7	241	244
257	1	251	252
258	2	252	253
259	3	252	292
260	4	253	254
261	5	253	286
262	6	254	255
263	7	254	284
264	7	254	285
265	6	255	256
266	6	255	280
267	6	255	264
268	6	256	257
269	7	256	278
270	7	256	279
271	4	257	258
272	6	257	262
273	7	257	277
274	2	258	259
275	5	258	261
276	1	259	260
277	6	262	263
278	7	262	275
279	7	262	276
280	6	263	264
281	6	263	267
282	6	263	271
283	7	264	265
284	7	264	266
285	7	267	268
286	7	267	269
287	7	267	270
288	7	271	272
289	7	271	273
290	7	271	274
291	7	280	281
292	7	280	282
293	7	280	283
294	9	287	288
295	3	287	309
296	6	288	289
297	7	288	299
298	7	288	300
299	6	289	290
300	7	289	297
301	7	289	298
302	6	290	291
303	7	290	295
304	7	290	296
305	9	291	292
306	7	291	293
307	7	291	294
308	1	301	302
309	2	302	303
310	3	302	342
311	4	303	304
312	5	303	336
313	6	304	305
314	7	304	334
315	7	304	335
316	6	305	306
317	6	305	330
318	6	305	314
319	6	306	307
320	7	306	328
321	7	306	329
322	4	307	308
323	6	307	312
324	7	307	327
325	2	308	309
326	5	308	311
327	1	309	310
328	6	312	313
329	7	312	325
330	7	312	326
331	6	313	314
332	6	313	317
333	6	313	321
334	7	314	315
335	7	314	316
336	7	317	318
337	7	317	319
338	7	317	320
339	7	321	322
340	7	321	323
341	7	321	324
342	7	330	331
343	7	330	332
344	7	330	333
345	9	337	338
346	3	337	359
347	6	338	339
348	7	338	349
349	7	338	350
350	6	339	340
351	7	339	347
352	7	339	348
353	6	340	341
354	7	340	345
355	7	340	346
356	9	341	342
357	7	341	343
358	7	341	344
359	1	351	352
360	2	352	353
361	3	352	392
362	4	353	354
363	5	353	386
364	6	354	355
365	7	354	384
366	7	354	385
367	6	355	356
368	6	355	380
369	6	355	364
370	6	356	357
371	7	356	378
372	7	356	379
373	4	357	358
374	6	357	362
375	7	357	377
376	2	358	359
377	5	358	361
378	1	359	360
379	6	362	363
380	7	362	375
381	7	362	376
382	6	363	364
383	6	363	367
384	6	363	371
385	7	364	365
386	7	364	366
387	7	367	368
388	7	367	369
389	7	367	370
390	7	371	372
391	7	371	373
392	7	371	374
393	7	380	381
394	7	380	382
395	7	380	383
396	9	387	388
397	10	387	436
398	6	388	389
399	7	388	399
400	7	388	400
401	6	389	390
402	7	389	397
403	7	389	398
404	6	390	391
405	7	390	395
406	7	390	396
407	9	391	392
408	7	391	393
409	7	391	394
410	1	401	402
411	2	402	403
412	4	403	404
413	5	403	435
414	6	404	405
415	7	404	434
416	6	404	417
417	6	405	406
418	7	405	432
419	7	405	433
420	6	406	407
421	6	406	411
422	6	406	415
423	7	407	408
424	7	407	409
425	7	407	410
426	7	411	412
427	7	411	413
428	7	411	414
429	6	415	416
430	7	415	430
431	7	415	431
432	6	416	417
433	6	416	420
434	6	416	424
435	7	417	418
436	7	417	419
437	7	420	421
438	7	420	422
439	7	420	423
440	11	424	425
441	7	424	428
442	7	424	429
443	12	425	426
444	1	426	427
445	9	436	437
446	6	437	438
447	7	437	449
448	7	437	450
449	6	438	439
450	7	438	447
451	7	438	448
452	6	439	440
453	7	439	445
454	7	439	446
455	13	440	441
456	7	440	443
457	7	440	444
458	14	441	442

Angles

1	1	58	59	60
2	6	291	290	295
3	6	304	305	306
4	6	303	304	335
5	6	41	40	46
6	6	189	188	199
7	6	242	241	243
8	6	206	207	212
9	7	319	317	320
10	6	5	30	33
11	5	52	92	91
12	6	113	117	120
13	6	207	212	226
14	6	53	54	84
15	6	354	355	356
16	6	206	205	214
17	6	255	256	279
18	3	357	358	359
19	6	391	390	395
20	6	292	291	293
21	6	212	213	217
22	4	402	403	435
23	6	155	156	157
24	1	158	159	160
25	6	287	288	299
26	6	5	4	35
27	6	264	263	271
28	4	54	53	86
29	6	363	371	372
30	6	57	62	76
31	2	51	52	92
32	7	315	314	316
33	6	288	289	298
34	6	305	306	329
35	4	4	3	36
36	6	92	91	93
37	6	305	330	331
38	6	39	38	49
39	5	288	287	309
40	6	392	391	393
41	6	42	41	43
42	6	387	388	399
43	6	436	437	450
44	6	206	205	230
45	6	39	40	45
46	6	240	241	242
47	5	252	292	291
48	3	307	308	309
49	7	169	167	170
50	4	259	258	261
51	1	153	152	192
52	7	47	39	48
53	6	63	71	74
54	6	356	357	377
55	6	63	67	69
56	6	88	89	97
57	6	338	339	347
58	6	90	91	93