Title

13875 atoms
14750 bonds
25625 angles
41625 dihedrals
16500 impropers

9 atom types
13 bond types
9 angle types
19 dihedral types
3 improper types
-13.46420588 134.9994747 xlo xhi
-12.71870807 134.7035691 ylo yhi
-13.00471056 135.0335385 zlo zhi
0.0 0.0 0.0 xy xz yz

Masses

1	14.00672
2	12.01078
3	1.007947
4	1.007947
5	15.99943
6	12.01078
7	1.007947
8	15.99943
9	1.007947


Pair Coeffs

1	0.16769152	3.206876
2	0.086879315	3.4806469
3	0.015611343	2.5725815
4	0.014090815	1.1034277
5	0.2102061	3.0398122
6	0.10884061	3.3795318
7	0.015779483	2.6445434
8	0.20947353	2.99716
9	1.2326e-05	0.53453923

Bond Coeffs

1 harmonic	390.03554688505	1.390160554689
2 harmonic	505.144496193	1.019481865027
3 harmonic	422.7150220147	1.421786517481
4 harmonic	360.7852444772	1.387193227181
5 harmonic	397.2545789619	1.085358495916
6 harmonic	492.76746816345	1.381897776683
7 harmonic	582.698766451	1.225198386222
8 harmonic	279.1350963404	1.454628925034
9 harmonic	289.73813263395	1.498646816465
10 harmonic	264.62148576755	1.52190126495
11 harmonic	370.04670688625	1.093899492634
12 harmonic	385.7604595587	1.369745182308
13 harmonic	543.5267831885	0.9716763312559


Angle Coeffs

1 harmonic	57.8982893754	126.8062420451
2 harmonic	55.42182150775	117.3465570514
3 harmonic	63.44422595415	115.5071327674
4 harmonic	34.066775159195	129.1835929926
5 harmonic	53.20531626545	116.5475862634
6 harmonic	14.32262199324	138.3184368373
7 harmonic	48.776492647595	115.6030999533
8 harmonic	65.09061609600001	110.3538806181
9 harmonic	201.41175231035	127.4691416191


Dihedral Coeffs

1 fourier 1	3.661930099076	2	180
2 fourier 1	1.193093382682	2	180
3 fourier 1	0.02021088501612	1	0
4 fourier 1	3.101948770557	2	180
5 fourier 1	-0.4252153282372	1	0
6 fourier 1	1.809047390003	2	180
7 fourier 1	-0.04816277792592	1	0
8 fourier 1	0.9974165607242	2	180
9 fourier 1	2.348375642009	2	180
10 fourier 1	1.256156174911	1	0
11 fourier 1	0.02664938770063	3	0
12 fourier 1	0.1155372516788	3	0
13 fourier 1	0.09223874044423	3	0
14 fourier 1	0.3159935921949	2	180
15 fourier 1	0.3247796806857	1	180
16 fourier 1	0.1040663847541	3	0
17 fourier 1	2.687457892086	2	180
18 fourier 1	2.772607909663	2	180
19 fourier 1	0.09692684957115	1	0


Improper Coeffs

1 0.3666666666666667	-1	2
2 0.3333333333333333	-1	2
3 3.5	-1	2


Atoms

1	4	1	-0.41015426	-3.0113297	-9.0672297	-1.38101
2	4	2	0.086104279	-1.6502809	-8.701196	-1.6194873
3	4	2	-0.37280241	-0.93352615	-9.322941	-2.570871
4	4	3	0.22499187	-1.3773414	-10.109213	-3.1682376
5	4	2	-0.3306543	0.47344123	-8.9392046	-2.8121949
6	4	3	0.22113052	1.0354183	-9.4522808	-3.5835175
7	4	2	0.15014486	1.0444017	-7.9666002	-2.0834797
8	4	1	-0.53045666	2.4049409	-7.5912231	-2.3128224
9	4	4	0.32144868	2.9783756	-8.0626289	-3.0469791
10	4	2	-0.33065438	0.25433208	-7.2813024	-1.0342443
11	4	3	0.22113053	0.70722532	-6.4958479	-0.44166522
12	4	2	-0.37280241	-1.0201574	-7.6283578	-0.81450999
13	4	3	0.22499184	-1.5911596	-7.1218032	-0.046653948
14	4	4	0.37521282	-3.473009	-9.8214498	-1.937935
15	5	2	0.76978427	2.8551562	-6.8206783	-1.7342622
16	5	5	-0.65102983	3.3028971	-7.1005742	-0.59121518
17	5	2	-0.36890662	2.9506771	-5.4503904	-2.2686476
18	5	2	-0.075630578	2.4709083	-5.1699966	-3.4896366
19	5	3	0.2271585	2.0118712	-5.9420744	-4.0942703
20	5	2	-0.24616847	2.5618346	-3.7991892	-4.0355381
21	5	3	0.21767229	2.1783816	-3.6413637	-5.0320761
22	5	2	-0.20649679	3.1036163	-2.7975102	-3.3086319
23	5	6	0.026082629	3.256412	-1.3644908	-3.8470609
24	5	6	-0.130759	2.3622701	-1.0523436	-5.0713171
25	5	7	0.089703692	2.6881197	-1.6322594	-5.9606325
26	5	7	0.089703692	2.4256177	0.024999707	-5.3394971
27	5	7	0.089703692	1.2990323	-1.2920025	-4.852436
28	5	2	-0.12152495	2.9375255	-0.36737169	-2.7770637
29	5	2	-0.14840833	1.7922972	-0.25762382	-2.0876026
30	5	3	0.21720071	0.97092772	-0.93982905	-2.2635777
31	5	2	0.0034585838	1.6653814	0.81742113	-1.076093
32	5	3	0.2175004	0.7425064	0.90047432	-0.51605911
33	5	2	-0.34365353	2.6840624	1.6769807	-0.86186114
34	5	2	0.58752846	2.5477593	2.7456542	0.14338079
35	5	5	-0.50493914	3.4881061	3.5557217	0.3558068
36	5	2	0.074928162	3.9402264	1.5360819	-1.6523019
37	5	3	0.21150206	4.763355	2.2227476	-1.5048752
38	5	2	-0.17840737	4.0354906	0.54557912	-2.5523719
39	5	6	-0.026253825	5.1894778	0.24229888	-3.4532579
40	5	6	-0.1303328	5.3896114	1.3913639	-4.4599902
41	5	7	0.093893392	5.6568586	2.3327414	-3.9335822
42	5	7	0.093893392	4.4602217	1.5683977	-5.0429026
43	5	7	0.093893392	6.2084297	1.1444056	-5.168864
44	5	6	-0.1303328	6.4763995	0.016478471	-2.6385876
45	5	7	0.093893392	6.7877467	0.9492289	-2.1219141
46	5	7	0.093893392	6.3202719	-0.7734633	-1.8710538
47	5	7	0.093893392	7.303979	-0.30213292	-3.3081665
48	5	6	-0.18019815	4.754522	-1.0673875	-4.1869227
49	5	7	0.1322954	4.9153489	-0.98979616	-5.2852689
50	5	7	0.1322954	5.3976467	-1.9188199	-3.8666066
51	5	2	-0.24616847	3.6585484	-3.1282092	-1.9636837
52	5	3	0.21767229	4.1387512	-2.3613175	-1.3692047
53	5	2	-0.075630526	3.5819961	-4.3711601	-1.4741922
54	5	3	0.22715847	3.9916803	-4.5814438	-0.4945675
55	1	1	-0.41015423	-3.567853	-8.5829721	-0.64121113
56	1	2	0.086104309	-4.9819631	-8.7732089	-0.55781092
57	1	2	-0.33663929	-5.698626	-8.1521069	0.39281238
58	1	3	0.22499186	-5.2148001	-7.4985421	1.108555
59	1	2	-0.41183755	-7.1602455	-8.3526744	0.47394793
60	1	3	0.23612927	-7.7222695	-7.8426617	1.2465404
61	1	2	0.26738393	-7.7822223	-9.1576468	-0.40269237
62	1	1	-0.84283906	-9.1962769	-9.3564338	-0.3304676
63	1	4	0.36991697	-9.678446	-9.9831722	-1.0121427
64	1	4	0.36991697	-9.7708954	-8.8815128	0.40188862
65	1	2	-0.41183755	-6.9917879	-9.8443057	-1.4520479
66	1	3	0.23612925	-7.4851485	-10.495049	-2.1621225
67	1	2	-0.33663929	-5.6671929	-9.6620851	-1.5250174
68	1	3	0.22499186	-5.0967366	-10.167204	-2.2941539
69	1	4	0.37521282	-3.0655677	-7.9610431	0.03117918
70	2	2	0.59302825	1.6330377	2.8447224	0.71321477
71	2	5	-0.51552057	1.0324255	1.802011	1.0884198
72	2	2	-0.3322064	1.1129982	4.1860398	1.035129
73	2	2	0.0087509962	-0.019381576	4.3524715	1.7373908
74	2	3	0.22512524	-0.58918722	3.5008539	2.0888663
75	2	2	-0.23940841	-0.51483086	5.7082759	2.0447639
76	2	3	0.21767229	-1.441939	5.7996795	2.5972247
77	2	2	-0.20649679	0.16199663	6.808792	1.6456662
78	2	6	0.026082629	-0.39519297	8.2085579	1.9583806
79	2	6	-0.130759	0.608052	9.346788	1.6654681
80	2	7	0.089703692	1.5647025	9.1779237	2.2053095
81	2	7	0.089703692	0.81437481	9.4224911	0.57684603
82	2	7	0.089703692	0.19655743	10.326545	1.9932393
83	2	2	-0.12152495	-0.80587193	8.3088749	3.3955919
84	2	2	-0.16780874	-0.038029814	8.0940705	4.4736061
85	2	3	0.21720071	0.99758926	7.7998639	4.3674852
86	2	2	-0.057790408	-0.63100727	8.2644518	5.8203339
87	2	3	0.23383885	-0.0063682804	8.0829133	6.6858834
88	2	2	-0.2255079	-1.9239969	8.64114	5.9584418
89	2	2	0.83685744	-2.5293226	8.818534	7.2964321
90	2	5	-0.47262633	-1.8495408	8.6212759	8.341077
91	2	8	-0.66280532	-3.861321	9.2058938	7.4115958
92	2	9	0.42036336	-4.2891147	9.33123	8.3218591
93	2	2	0.0090863617	-2.7442344	8.8808671	4.7385982
94	2	3	0.22670425	-3.7774607	9.194628	4.8218957
95	2	2	-0.17266938	-2.1877241	8.7068963	3.5299111
96	2	6	-0.026253825	-2.8295752	8.9106661	2.1936829
97	2	6	-0.1303328	-4.0936337	8.041063	2.0556223
98	2	7	0.093893392	-4.8778049	8.362594	2.7740089
99	2	7	0.093893392	-3.8563453	6.9720417	2.2518178
100	2	7	0.093893392	-4.5084315	8.1263219	1.028546
101	2	6	-0.1303328	-3.1817054	10.396952	1.9990001
102	2	7	0.093893392	-2.276154	11.031705	2.1108531
103	2	7	0.093893392	-3.934032	10.725124	2.7471831
104	2	7	0.093893392	-3.6040355	10.563522	0.98510964
105	2	6	-0.18019815	-1.7288815	8.4628631	1.178416
106	2	7	0.1322954	-1.5924166	9.2172098	0.37153287
107	2	7	0.1322954	-2.0484213	7.5381143	0.64609466
108	2	2	-0.23940839	1.4099093	6.609479	0.85101968
109	2	3	0.21767229	1.9825099	7.448503	0.48422785
110	2	2	0.0087509394	1.8550008	5.3781478	0.57039507
111	2	3	0.22512527	2.7644375	5.2583044	-0.0048670138
112	4	1	-0.41015426	-6.5600913	-6.5673302	25.232112
113	4	2	0.086104279	-5.3107273	-6.9656503	25.80109
114	4	2	-0.37280241	-4.7349684	-8.1244348	25.438937
115	4	3	0.22499187	-5.2101265	-8.7712591	24.712379
116	4	2	-0.3306543	-3.4428088	-8.5300325	26.031273
117	4	3	0.22113052	-2.9942214	-9.4682156	25.726994
118	4	2	0.15014486	-2.835304	-7.7433627	26.934085
119	4	1	-0.53045666	-1.5851915	-8.130678	27.510087
120	4	4	0.32144868	-1.1222158	-9.0272356	27.241993
121	4	2	-0.33065438	-3.4702267	-6.4659048	27.333725
122	4	3	0.22113053	-2.9871135	-5.8254985	28.061518
123	4	2	-0.37280241	-4.6409274	-6.0976642	26.798083
124	4	3	0.22499184	-5.0978013	-5.1619118	27.094525
125	4	4	0.37521282	-7.0479032	-7.1660019	24.527986
126	5	2	0.76978427	-1.1059215	-7.5060552	28.225148
127	5	5	-0.65102983	-1.4812896	-7.556508	29.425949
128	5	2	-0.36890662	-0.020377038	-6.5995709	27.810105
129	5	2	-0.075630578	0.36904605	-6.5603187	26.526976
130	5	3	0.2271585	-0.10518629	-7.1909513	25.785486
131	5	2	-0.24616847	1.4570137	-5.6551844	26.099837
132	5	3	0.21767229	1.7402425	-5.6853965	25.058731
133	5	2	-0.20649679	2.0617918	-4.8318649	26.983958
134	5	6	0.026082629	3.2239359	-3.9011127	26.596765
135	5	6	-0.130759	3.3487651	-3.6480516	25.074889
136	5	7	0.089703692	3.651767	-4.5734486	24.540855
137	5	7	0.089703692	4.1245224	-2.8789265	24.866924
138	5	7	0.089703692	2.3840174	-3.2877812	24.656216
139	5	2	-0.12152495	3.0788738	-2.5742283	27.274381
140	5	2	-0.14840833	2.0398501	-1.7304012	27.188738
141	5	3	0.21720071	1.1715786	-1.9778334	26.592164
142	5	2	0.0034585838	2.0972734	-0.44637233	27.925592
143	5	3	0.2175004	1.2549025	0.23067109	27.860343
144	5	2	-0.34365353	3.1835857	-0.12974467	28.661881
145	5	2	0.58752846	3.2338431	1.1512007	29.388384
146	5	5	-0.50493914	4.2392898	1.4621002	30.079762
147	5	2	0.074928162	4.3273243	-1.0837205	28.728132
148	5	3	0.21150206	5.2124113	-0.84300842	29.302121
149	5	2	-0.17840737	4.2449412	-2.2461819	28.063156
150	5	6	-0.026253825	5.2774145	-3.324605	27.984014
151	5	6	-0.1303328	6.5260597	-2.8069049	27.244565
152	5	7	0.093893392	7.0004429	-1.9756492	27.809093
153	5	7	0.093893392	6.2563083	-2.4335978	26.233244
154	5	7	0.093893392	7.2726149	-3.6217012	27.131798
155	5	6	-0.1303328	5.6584205	-3.8230715	29.390149
156	5	7	0.093893392	6.1626167	-3.0222854	29.971905
157	5	7	0.093893392	4.7527278	-4.1451687	29.95003
158	5	7	0.093893392	6.3524382	-4.6877179	29.316238
159	5	6	-0.18019815	4.5747394	-4.4527609	27.161676
160	5	7	0.1322954	5.2323566	-4.831234	26.347705
161	5	7	0.1322954	4.3871564	-5.3399	27.808936
162	5	2	-0.24616847	1.6386153	-4.9051545	28.412855
163	5	3	0.21767229	2.1290782	-4.2918504	29.158125
164	5	2	-0.075630526	0.65868128	-5.7303966	28.798982
165	5	3	0.22715847	0.37151407	-5.7610614	29.842208
166	1	1	-0.41015423	-7.0067909	-5.665984	25.514177
167	1	2	0.086104309	-8.1220018	-5.1507021	24.783668
168	1	2	-0.33663929	-8.6977128	-3.9927451	25.145262
169	1	3	0.22499186	-8.3244569	-3.4337533	25.994809
170	1	2	-0.41183755	-9.8502969	-3.465102	24.386128
171	1	3	0.23612927	-10.301231	-2.5289961	24.691491
172	1	2	0.26738393	-10.330144	-4.1400683	23.329009
173	1	1	-0.84283906	-11.44503	-3.6356166	22.589523
174	1	4	0.36991697	-11.817593	-4.1617972	21.768365
175	1	4	0.36991697	-11.906004	-2.7362272	22.855388
176	1	2	-0.41183755	-9.6956858	-5.4188548	22.929506
177	1	3	0.23612925	-10.07648	-5.9692724	22.079146
178	1	2	-0.33663929	-8.6511533	-5.8964681	23.617924
179	1	3	0.22499186	-8.1932543	-6.8312184	23.320087
180	1	4	0.37521282	-6.6189031	-5.1560511	26.339226
181	2	2	0.59302825	2.4016278	1.8410269	29.335483
182	2	5	-0.51552057	1.2281048	1.3811285	29.325575
183	2	2	-0.3322064	2.6562914	3.2918201	29.275923
184	2	2	0.0087509962	1.6522708	4.1808259	29.206883
185	2	3	0.22512524	0.61883554	3.8564505	29.190817
186	2	2	-0.23940841	1.9386513	5.6274742	29.149014
187	2	3	0.21767229	1.1015734	6.3107838	29.07495
188	2	2	-0.20649679	3.2080695	6.0922804	29.181306
189	2	6	0.026082629	3.4745453	7.6050844	29.09181
190	2	6	-0.130759	4.9403806	7.988002	29.396059
191	2	7	0.089703692	5.2531839	7.5945358	30.387251
192	2	7	0.089703692	5.6236595	7.5905192	28.615972
193	2	7	0.089703692	5.0622505	9.0932696	29.410795
194	2	2	-0.12152495	2.590953	8.3579188	30.038806
195	2	2	-0.16780874	2.5016444	8.1934718	31.366518
196	2	3	0.21720071	3.0937893	7.4435844	31.873824
197	2	2	-0.057790408	1.5741957	9.0566803	32.134006
198	2	3	0.23383885	1.5029318	8.9134644	33.204855
199	2	2	-0.2255079	0.83761613	10.002537	31.505042
200	2	2	0.83685744	-0.090325265	10.874213	32.258175
201	2	5	-0.47262633	-0.21477772	10.753122	33.508034
202	2	8	-0.66280532	-0.83709143	11.838921	31.587945
203	2	9	0.42036336	-1.4767115	12.443053	32.091142
204	2	2	0.0090863617	0.97011969	10.16372	30.030342
205	2	3	0.22670425	0.40113802	10.920966	29.505194
206	2	2	-0.17266938	1.807262	9.3605613	29.355788
207	2	6	-0.026253825	2.0950607	9.3717345	27.887439
208	2	6	-0.1303328	0.79994425	9.1841907	27.074657
209	2	7	0.093893392	0.11496099	10.047879	27.213317
210	2	7	0.093893392	0.26797791	8.2608018	27.393984
211	2	7	0.093893392	1.0346376	9.098169	25.992192
212	2	6	-0.1303328	2.7836354	10.691915	27.495097
213	2	7	0.093893392	3.7121655	10.840334	28.08776
214	2	7	0.093893392	2.1105794	11.556589	27.676217
215	2	7	0.093893392	3.0531143	10.680786	26.417443
216	2	6	-0.18019815	3.0616841	8.1599987	27.687048
217	2	7	0.1322954	3.9518013	8.4484819	27.084395
218	2	7	0.1322954	2.563571	7.3642807	27.087592
219	2	2	-0.23940839	4.3150377	5.0924945	29.240673
220	2	3	0.21767229	5.3502864	5.4000669	29.245998
221	2	2	0.0087509394	4.0522837	3.7803842	29.289252
222	2	3	0.22512527	4.871613	3.0740144	29.335135
223	4	1	-0.41015426	-8.7655761	-0.92323504	59.702582
224	4	2	0.086104279	-7.6391267	-0.54734718	60.498274
225	4	2	-0.37280241	-7.5673938	-0.90586469	61.791237
226	4	3	0.22499187	-8.3618515	-1.4831849	62.246848
227	4	2	-0.3306543	-6.3994783	-0.51383406	62.608142
228	4	3	0.22113052	-6.3597068	-0.81193263	63.649084
229	4	2	0.15014486	-5.4022914	0.20200757	62.063927
230	4	1	-0.53045666	-4.2701076	0.58374525	62.849426
231	4	4	0.32144868	-4.1961547	0.31521734	63.855637
232	4	2	-0.33065438	-5.4814784	0.59766651	60.638472
233	4	3	0.22113053	-4.6816105	1.1753593	60.191613
234	4	2	-0.37280241	-6.5391614	0.243419	59.897615
235	4	3	0.22499184	-6.5888868	0.53545776	58.856229
236	4	4	0.37521282	-9.5512132	-1.4803565	60.108231
237	5	2	0.76978427	-3.4815251	1.1509169	62.416276
238	5	5	-0.65102983	-3.61567	2.3984622	62.311368
239	5	2	-0.36890662	-2.2544868	0.48084044	61.949633
240	5	2	-0.075630578	-2.1268512	-0.84900369	62.071439
241	5	3	0.2271585	-2.9178513	-1.442485	62.512461
242	5	2	-0.24616847	-0.90033928	-1.5312578	61.607126
243	5	3	0.21767229	-0.84786333	-2.5994572	61.752829
244	5	2	-0.20649679	0.10310783	-0.83633666	61.027937
245	5	6	0.026082629	1.4142603	-1.4943188	60.564542
246	5	6	-0.130759	1.3243678	-3.030585	60.398606
247	5	7	0.089703692	1.190387	-3.5301154	61.381398
248	5	7	0.089703692	2.258989	-3.432529	59.949689
249	5	7	0.089703692	0.47621782	-3.3049176	59.734374
250	5	2	-0.12152495	1.8564264	-0.91449778	59.257206
251	5	2	-0.14840833	1.166087	-0.88933853	58.107533
252	5	3	0.21720071	0.16838215	-1.3044215	58.05
253	5	2	0.0034585838	1.7918353	-0.28276716	56.909414
254	5	3	0.2175004	1.2305702	-0.25767427	55.983894
255	5	2	-0.34365353	3.0405358	0.22605461	56.97496
256	5	2	0.58752846	3.6566645	0.82395999	55.777443
257	5	5	-0.50493914	4.8203055	1.3031379	55.821192
258	5	2	0.074928162	3.7866531	0.17294249	58.264567
259	5	3	0.21150206	4.7932947	0.56351479	58.334645
260	5	2	-0.17840737	3.1925228	-0.36887861	59.338688
261	5	6	-0.026253825	3.7664194	-0.53514053	60.709185
262	5	6	-0.1303328	4.9511048	-1.5194549	60.66969
263	5	7	0.093893392	5.7760438	-1.1163577	60.043826
264	5	7	0.093893392	4.6352016	-2.4965067	60.244875
265	5	7	0.093893392	5.3436952	-1.6912774	61.694533
266	5	6	-0.1303328	4.2180596	0.82061105	61.282603
267	5	7	0.093893392	5.0635164	1.2380028	60.695322
268	5	7	0.093893392	3.3812278	1.5532267	61.260717
269	5	7	0.093893392	4.5528306	0.70013644	62.335291
270	5	6	-0.18019815	2.5818522	-1.1271896	61.539249
271	5	7	0.1322954	2.9056196	-2.0081397	62.137038
272	5	7	0.1322954	2.2336298	-0.38580539	62.294391
273	5	2	-0.24616847	-0.039316159	0.64523016	60.923668
274	5	3	0.21767229	0.76153724	1.2410602	60.50445
275	5	2	-0.075630526	-1.1471317	1.261944	61.351216
276	5	3	0.22715847	-1.2233305	2.3379633	61.26121
277	1	1	-0.41015423	-8.8202446	-0.64420343	58.697257
278	1	2	0.086104309	-9.8144132	-1.2115069	57.841308
279	1	2	-0.33663929	-9.8864873	-0.85347795	56.549147
280	1	3	0.22499186	-9.1921133	-0.13055668	56.138353
281	1	2	-0.41183755	-10.916415	-1.4434534	55.669193
282	1	3	0.23612927	-10.958844	-1.1437127	54.629367
283	1	2	0.26738393	-11.787704	-2.3420638	56.1557
284	1	1	-0.84283906	-12.786931	-2.9173347	55.310188
285	1	4	0.36991697	-13.464206	-3.6152394	55.689921
286	1	4	0.36991697	-12.85851	-2.6515762	54.302056
287	1	2	-0.41183755	-11.709366	-2.7373968	57.582238
288	1	3	0.23612925	-12.40796	-3.4605281	57.982395
289	1	2	-0.33663929	-10.775715	-2.2023354	58.379161
290	1	3	0.22499186	-10.724973	-2.4960032	59.419988
291	1	4	0.37521282	-8.1335662	0.056225796	58.337998
292	2	2	0.59302825	3.1114221	0.85835635	54.843222
293	2	5	-0.51552057	1.8725777	1.0894225	54.868399
294	2	2	-0.3322064	3.8233296	0.63535924	53.571742
295	2	2	0.0087509962	3.1836432	0.66701736	52.391507
296	2	3	0.22512524	2.1184276	0.85659421	52.338194
297	2	2	-0.23940841	3.9237243	0.44054953	51.134866
298	2	3	0.21767229	3.3677686	0.45555547	50.205466
299	2	2	-0.20649679	5.2569155	0.21449189	51.137879
300	2	6	0.026082629	5.9948841	-0.045079054	49.81288
301	2	6	-0.130759	7.5334827	-0.031315462	49.955677
302	2	7	0.089703692	7.8784598	0.92022531	50.414681
303	2	7	0.089703692	7.8809744	-0.88185919	50.579554
304	2	7	0.089703692	8.0207789	-0.12975258	48.960921
305	2	2	-0.12152495	5.6141431	0.97432457	48.783245
306	2	2	-0.16780874	5.7295992	2.3065264	48.881963
307	2	3	0.21720071	6.1198962	2.7645493	49.780967
308	2	2	-0.057790408	5.3113479	3.1481435	47.736941
309	2	3	0.23383885	5.4016115	4.2233608	47.826753
310	2	2	-0.2255079	4.8306438	2.5793589	46.606367
311	2	2	0.83685744	4.412052	3.4062687	45.453498
312	2	5	-0.47262633	4.4948527	4.6645221	45.500823
313	2	8	-0.66280532	3.9204329	2.7971746	44.302479
314	2	9	0.42036336	3.6299735	3.3512456	43.505024
315	2	2	0.0090863617	4.7258914	1.0957067	46.528391
316	2	3	0.22670425	4.3560288	0.61556299	45.630836
317	2	2	-0.17266938	5.0988078	0.35589957	47.584096
318	2	6	-0.026253825	5.0879627	-1.1358572	47.70048
319	2	6	-0.1303328	3.6755933	-1.6944412	47.442971
320	2	7	0.093893392	3.3611771	-1.5118966	46.393111
321	2	7	0.093893392	2.9350745	-1.2124576	48.118936
322	2	7	0.093893392	3.6566381	-2.7902174	47.62498
323	2	6	-0.1303328	6.0925566	-1.7495148	46.707928
324	2	7	0.093893392	7.1117462	-1.3404433	46.87927
325	2	7	0.093893392	5.7975668	-1.5274384	45.660486
326	2	7	0.093893392	6.1318088	-2.8527983	46.831648
327	2	6	-0.18019815	5.5331357	-1.3986762	49.17546
328	2	7	0.1322954	6.3361322	-2.1677898	49.224274
329	2	7	0.1322954	4.6916191	-1.8349119	49.760422
330	2	2	-0.23940839	5.952391	0.16477836	52.457847
331	2	3	0.21767229	7.0115735	-0.034257186	52.527748
332	2	2	0.0087509394	5.2776194	0.36686789	53.596652
333	2	3	0.22512527	5.8040714	0.32918247	54.542058
334	4	1	-0.41015426	0.75246828	6.0702675	76.17963
335	4	2	0.086104279	0.33020499	4.7182365	75.987245
336	4	2	-0.37280241	0.61968449	4.0690586	74.84698
337	4	3	0.22499187	1.1756242	4.5617657	74.059443
338	4	2	-0.3306543	0.18000076	2.670914	74.654839
339	4	3	0.22113052	0.42258331	2.1641083	73.728391
340	4	2	0.15014486	-0.51047617	2.0399341	75.618212
341	4	1	-0.53045666	-0.93806829	0.687464	75.437761
342	4	4	0.32144868	-0.72333165	0.16631859	74.558936
343	4	2	-0.33065438	-0.8300217	2.7557377	76.875293
344	4	3	0.22113053	-1.3868189	2.2543047	77.657433
345	4	2	-0.37280241	-0.43256199	4.0224107	77.050278
346	4	3	0.22499184	-0.66902632	4.5381587	77.972412
347	4	4	0.37521282	1.2908352	6.5778562	75.441608
348	5	2	0.76978427	-1.4850331	0.18974716	76.202138
349	5	5	-0.65102983	-2.7247076	0.39070382	76.292656
350	5	2	-0.36890662	-0.79663245	-0.71950046	77.135816
351	5	2	-0.075630578	0.52436222	-0.9244029	77.023561
352	5	3	0.2271585	1.0971951	-0.42874427	76.249878
353	5	2	-0.24616847	1.2248029	-1.8345493	77.95437
354	5	3	0.21767229	2.2835871	-1.9756247	77.799107
355	5	2	-0.20649679	0.55703506	-2.4561502	78.950854
356	5	6	0.026082629	1.2328198	-3.4418096	79.919661
357	5	6	-0.130759	2.7760792	-3.3296475	79.958378
358	5	7	0.089703692	3.223638	-3.6605669	78.997365
359	5	7	0.089703692	3.1970651	-3.9776561	80.758039
360	5	7	0.089703692	3.0887781	-2.2824423	80.161849
361	5	2	-0.12152495	0.72086147	-3.2402143	81.311813
362	5	2	-0.14840833	0.75941327	-2.1101371	82.033192
363	5	3	0.21720071	1.1813063	-1.2027788	81.621214
364	5	2	0.0034585838	0.21417789	-2.1207324	83.410722
365	5	3	0.2175004	0.2404051	-1.2059119	83.989211
366	5	2	-0.34365353	-0.30284128	-3.2537765	83.931635
367	5	2	0.58752846	-0.83941261	-3.2562659	85.303946
368	5	5	-0.50493914	-1.325308	-4.3042816	85.8051
369	5	2	0.074928162	-0.32110644	-4.4967976	83.108737
370	5	3	0.21150206	-0.71922412	-5.4184081	83.512372
371	5	2	-0.17840737	0.1658741	-4.4575746	81.859093
372	5	6	-0.026253825	0.25708398	-5.5855071	80.882001
373	5	6	-0.1303328	1.2369287	-6.6554591	81.400673
374	5	7	0.093893392	0.86381779	-7.1044982	82.34612
375	5	7	0.093893392	2.2364045	-6.2104854	81.595454
376	5	7	0.093893392	1.3527211	-7.4674858	80.651568
377	5	6	-0.1303328	-1.1289941	-6.2077109	80.632001
378	5	7	0.093893392	-1.5185049	-6.6918883	81.552743
379	5	7	0.093893392	-1.8557733	-5.4287559	80.311824
380	5	7	0.093893392	-1.0656943	-6.9789555	79.83456
381	5	6	-0.18019815	0.80967757	-4.9105408	79.585162
382	5	7	0.1322954	1.6564367	-5.4904384	79.155083
383	5	7	0.1322954	0.031009427	-4.9143849	78.788413
384	5	2	-0.24616847	-0.91633022	-2.2416498	79.047711
385	5	3	0.21767229	-1.492702	-2.7557633	79.806398
386	5	2	-0.075630526	-1.549901	-1.4232038	78.1997
387	5	3	0.22715847	-2.6193293	-1.285452	78.294949
388	1	1	-0.41015423	0.52711172	6.5740434	77.066732
389	1	2	0.086104309	1.1431239	7.8292115	77.36327
390	1	2	-0.33663929	0.85409141	8.4783242	78.502643
391	1	3	0.22499186	0.15082718	8.0592688	79.212104
392	1	2	-0.41183755	1.4941665	9.7755604	78.803682
393	1	3	0.23612927	1.2498969	10.284293	79.728023
394	1	2	0.26738393	2.3696511	10.314494	77.939731
395	1	1	-0.84283906	2.9930909	11.56933	78.224323
396	1	4	0.36991697	3.6729379	11.987581	77.551386
397	1	4	0.36991697	2.7812109	12.089129	79.105798
398	1	2	-0.41183755	2.6888177	9.5989784	76.681318
399	1	3	0.23612925	3.3928713	10.026537	75.979478
400	1	2	-0.33663929	2.1083811	8.4233577	76.409123
401	1	3	0.22499186	2.3464972	7.9069036	75.487867
402	1	4	0.37521282	-0.15637762	6.1383366	77.725668
403	2	2	0.59302825	-0.82208665	-2.3516633	85.897777
404	2	5	-0.51552057	-1.0487477	-1.2475115	85.333654
405	2	2	-0.3322064	-0.53542249	-2.4295013	87.341719
406	2	2	0.0087509962	-0.50196906	-1.3309961	88.11329
407	2	3	0.22512524	-0.68381565	-0.34850097	87.694839
408	2	2	-0.23940841	-0.21274504	-1.4407511	89.556362
409	2	3	0.21767229	-0.17626342	-0.52923376	90.14023
410	2	2	-0.20649679	0.0070151503	-2.6417637	90.137554
411	2	6	0.026082629	0.33291188	-2.7201287	91.639301
412	2	6	-0.130759	0.3049147	-4.1606254	92.197917
413	2	7	0.089703692	-0.67101678	-4.6475334	91.98437
414	2	7	0.089703692	1.1198299	-4.772532	91.756463
415	2	7	0.089703692	0.45357324	-4.1570679	93.299994
416	2	2	-0.12152495	-0.62907176	-1.8933391	92.436361
417	2	2	-0.16780874	-1.965118	-2.0040811	92.45989
418	2	3	0.21720071	-2.4716379	-2.7408105	91.850798
419	2	2	-0.057790408	-2.7433124	-1.097261	93.335344
420	2	3	0.23383885	-3.8221547	-1.1885349	93.34397
421	2	2	-0.2255079	-2.1135729	-0.17962965	94.106169
422	2	2	0.83685744	-2.8766652	0.73058271	94.98782
423	2	5	-0.47262633	-4.1360124	0.66990694	95.039397
424	2	8	-0.66280532	-2.2055462	1.6659743	95.770235
425	2	9	0.42036336	-2.7154949	2.2959073	96.378866
426	2	2	0.0090863617	-0.62742995	-0.09184847	94.062005
427	2	3	0.22670425	-0.098985995	0.62533665	94.677905
428	2	2	-0.17266938	0.054008036	-0.91556362	93.250814
429	2	6	-0.026253825	1.537579	-0.99852527	93.074362
430	2	6	-0.1303328	2.115134	0.36505896	92.649883
431	2	7	0.093893392	1.9896132	1.1185259	93.456678
432	2	7	0.093893392	1.6013932	0.74050625	91.737351
433	2	7	0.093893392	3.1998526	0.2710232	92.429078
434	2	6	-0.1303328	2.1983604	-1.4731599	94.381662
435	2	7	0.093893392	1.7763715	-2.45054	94.701191
436	2	7	0.093893392	2.0331507	-0.73707559	95.196742
437	2	7	0.093893392	3.2933971	-1.593581	94.23857
438	2	6	-0.18019815	1.7202596	-2.0603479	91.942116
439	2	7	0.1322954	2.4822126	-2.8219921	92.221486
440	2	7	0.1322954	2.1286931	-1.579183	91.02435
441	2	2	-0.23940839	-0.016024735	-3.8528626	89.265096
442	2	3	0.21767229	0.17441843	-4.8375946	89.665599
443	2	2	0.0087509394	-0.2749723	-3.7498256	87.955377
444	2	3	0.22512527	-0.28952193	-4.6426724	87.343024
445	4	1	-0.41015426	4.0202623	-2.8959197	119.81557
446	4	2	0.086104279	2.6905598	-2.3720324	119.78839
447	4	2	-0.37280241	2.2034131	-1.6930902	120.8406
448	4	3	0.22499187	2.8113204	-1.5348306	121.72233
449	4	2	-0.3306543	0.8274871	-1.1539714	120.80558
450	4	3	0.22113052	0.45213727	-0.60948564	121.66386
451	4	2	0.15014486	0.055662576	-1.3380162	119.72234
452	4	1	-0.53045666	-1.2759277	-0.81850601	119.68298
453	4	4	0.32144868	-1.6725757	-0.28875009	120.49049
454	4	2	-0.33065438	0.59255219	-2.086908	118.56232
455	4	3	0.22113053	-0.023389392	-2.2401573	117.68464
456	4	2	-0.37280241	1.8386829	-2.5760553	118.5931
457	4	3	0.22499184	2.2240713	-3.1211809	117.74072
458	4	4	0.37521282	4.6359888	-2.7627241	120.64942
459	5	2	0.76978427	-1.8855236	-0.96567281	118.82397
460	5	5	-0.65102983	-2.49068	-2.0613828	118.68768
461	5	2	-0.36890662	-2.0157257	0.10028524	117.81443
462	5	2	-0.075630578	-1.366127	1.2627575	117.97658
463	5	3	0.2271585	-0.74336552	1.4317632	118.84607
464	5	2	-0.24616847	-1.4899387	2.3387823	116.97049
465	5	3	0.21767229	-0.96119974	3.2587609	117.16824
466	5	2	-0.20649679	-2.2354903	2.1651966	115.85725
467	5	6	0.026082629	-2.4270001	3.267613	114.80141
468	5	6	-0.130759	-1.3730262	4.3988806	114.87283
469	5	7	0.089703692	-1.4906982	4.9946591	115.80265
470	5	7	0.089703692	-1.4892995	5.0987006	114.01648
471	5	7	0.089703692	-0.34398404	3.9796412	114.83921
472	5	2	-0.12152495	-2.3847485	2.6844822	113.42336
473	5	2	-0.14840833	-1.3861175	1.9781492	112.87311
474	5	3	0.21720071	-0.48771924	1.7570986	113.43439
475	5	2	0.0034585838	-1.529671	1.502308	111.47742
476	5	3	0.2175004	-0.72517826	0.92686278	111.03709
477	5	2	-0.34365353	-2.6444504	1.7857181	110.77074
478	5	2	0.58752846	-2.7771546	1.3117821	109.38189
479	5	5	-0.50493914	-3.8101916	1.5671345	108.70867
480	5	2	0.074928162	-3.7322063	2.5826886	111.40653
481	5	3	0.21150206	-4.6279614	2.8315279	110.85292
482	5	2	-0.17840737	-3.5840097	2.989894	112.67638
483	5	6	-0.026253825	-4.5380578	3.806701	113.48748
484	5	6	-0.1303328	-4.671537	5.2175898	112.88292
485	5	7	0.093893392	-5.1084979	5.1679687	111.86247
486	5	7	0.093893392	-3.6779265	5.7104572	112.81427
487	5	7	0.093893392	-5.3339084	5.8466096	113.51502
488	5	6	-0.1303328	-5.9169388	3.1255459	113.56207
489	5	7	0.093893392	-6.3947656	3.0861327	112.56006
490	5	7	0.093893392	-5.8196058	2.0855194	113.94465
491	5	7	0.093893392	-6.5879052	3.6901741	114.24452
492	5	6	-0.18019815	-3.867933	3.8696797	114.89804
493	5	7	0.1322954	-3.849038	4.9101085	115.29225
494	5	7	0.1322954	-4.4746151	3.2983311	115.6374
495	5	2	-0.24616847	-2.9750003	0.87859355	115.70241
496	5	3	0.21767229	-3.6163613	0.718989	114.84491
497	5	2	-0.075630526	-2.8676017	-0.091445552	116.61777
498	5	3	0.22715847	-3.4144373	-1.0151413	116.47819
499	1	1	-0.41015423	4.3981846	-3.4234432	118.99678
500	1	2	0.086104309	5.7897825	-3.7401057	118.91911
501	1	2	-0.33663929	6.2770255	-4.4186215	117.86779
502	1	3	0.22499186	5.6222186	-4.7344983	117.06469
503	1	2	-0.41183755	7.7165867	-4.743007	117.7931
504	1	3	0.23612927	8.0920515	-5.2899246	116.93706
505	1	2	0.26738393	8.5478521	-4.3613644	118.77629
506	1	1	-0.84283906	9.9420522	-4.6715312	118.71083
507	1	4	0.36991697	10.587064	-4.3749282	119.47631
508	1	4	0.36991697	10.339841	-5.198329	117.90069
509	1	2	-0.41183755	8.0107496	-3.6128924	119.93765
510	1	3	0.23612925	8.6737074	-3.3020325	120.73447
511	1	2	-0.33663929	6.7060092	-3.3192309	120.00471
512	1	3	0.22499186	6.3212391	-2.772413	120.85622
513	1	4	0.37521282	3.7354232	-3.7113912	118.24244
514	2	2	0.59302825	-1.9837775	0.7351446	108.92441
515	2	5	-0.51552057	-1.3612296	-0.10811074	109.62449
516	2	2	-0.3322064	-1.650454	0.94703334	107.50413
517	2	2	0.0087509962	-0.67178652	0.25436547	106.8995
518	2	3	0.22512524	-0.093063911	-0.48399601	107.44113
519	2	2	-0.23940841	-0.36149722	0.48823406	105.47571
520	2	3	0.21767229	0.44765141	-0.077377636	105.03022
521	2	2	-0.20649679	-1.0601687	1.3859365	104.74462
522	2	6	0.026082629	-0.69420915	1.626326	103.26953
523	2	6	-0.130759	-1.7345334	2.4815191	102.51174
524	2	7	0.089703692	-2.7484423	2.0339964	102.59442
525	2	7	0.089703692	-1.7617514	3.5176053	102.91072
526	2	7	0.089703692	-1.4755154	2.5492158	101.43239
527	2	2	-0.12152495	-0.54093288	0.32646648	102.54072
528	2	2	-0.16780874	-1.4553915	-0.64676017	102.42058
529	2	3	0.21720071	-2.4271478	-0.55573809	102.8872
530	2	2	-0.057790408	-1.1144608	-1.856643	101.63682
531	2	3	0.23383885	-1.8558368	-2.6409231	101.5498
532	2	2	-0.2255079	0.096994558	-1.9714232	101.04353
533	2	2	0.83685744	0.45086468	-3.1719125	100.25505
534	2	5	-0.47262633	-0.37317986	-4.1178126	100.11896
535	2	8	-0.66280532	1.7034717	-3.2660205	99.655341
536	2	9	0.42036336	1.9594733	-4.0826212	99.112273
537	2	2	0.0090863617	1.0843399	-0.86598385	101.18992
538	2	3	0.22670425	2.0557721	-0.92798461	100.71514
539	2	2	-0.17266938	0.75642343	0.2138558	101.91608
540	2	6	-0.026253825	1.5914557	1.4295217	102.16883
541	2	6	-0.1303328	2.9352658	1.0451901	102.81657
542	2	7	0.093893392	3.5551829	0.44278115	102.11858
543	2	7	0.093893392	2.7677242	0.44812527	103.74018
544	2	7	0.093893392	3.5065533	1.9587182	103.08733
545	2	6	-0.1303328	1.8331315	2.186735	100.85005
546	2	7	0.093893392	0.86719675	2.4553302	100.37019