Title

231 atoms
246 bonds
425 angles
665 dihedrals
276 impropers

11 atom types
15 bond types
8 angle types
22 dihedral types
3 improper types
-15.9659996 84.0340004 xlo xhi
-8.145999908 91.85400009 ylo yhi
-24.47699928 75.52300072 zlo zhi
0.0 0.0 0.0 xy xz yz

Masses

1	14.00672
2	12.01078
3	1.007947
4	15.99943
5	12.01078
6	1.007947
7	18.998403
8	1.007947
9	15.99943
10	15.99943
11	1.007947


Pair Coeffs

1	0.16769152	3.206876
2	0.086879315	3.4806469
3	0.015611343	2.5725815
4	0.16846514	3.0251065
5	0.10884061	3.3795318
6	0.014090815	1.1034277
7	0.061	3.1181455
8	0.015779483	2.6445434
9	0.2102061	3.0398122
10	0.20947353	2.99716
11	1.2326e-05	0.53453923

Bond Coeffs

1 harmonic	390.03554688505	1.390160554689
2 harmonic	505.144496193	1.019481865027
3 harmonic	422.7150220147	1.421786517481
4 harmonic	360.7852444772	1.387193227181
5 harmonic	397.2545789619	1.085358495916
6 harmonic	279.1350963404	1.454628925034
7 harmonic	425.69104206635	1.362945806494
8 harmonic	289.73813263395	1.498646816465
9 harmonic	264.62148576755	1.52190126495
10 harmonic	492.76746816345	1.381897776683
11 harmonic	340.45121009905	1.358690858053
12 harmonic	370.04670688625	1.093899492634
13 harmonic	582.698766451	1.225198386222
14 harmonic	385.7604595587	1.369745182308
15 harmonic	543.5267831885	0.9716763312559


Angle Coeffs

1 harmonic	57.8982893754	126.8062420451
2 harmonic	55.42182150775	117.3465570514
3 harmonic	63.44422595415	115.5071327674
4 harmonic	34.066775159195	129.1835929926
5 harmonic	65.09061609600001	110.3538806181
6 harmonic	53.20531626545	116.5475862634
7 harmonic	48.776492647595	115.6030999533
8 harmonic	201.41175231035	127.4691416191


Dihedral Coeffs

1 fourier 1	3.661930099076	2	180
2 fourier 1	1.193093382682	2	180
3 fourier 1	0.02021088501612	1	0
4 fourier 1	1.163235555439	2	180
5 fourier 1	1.532232714475	2	180
6 fourier 1	0.02664938770063	3	0
7 fourier 1	0.1155372516788	3	0
8 fourier 1	0.1040663847541	3	0
9 fourier 1	0.09223874044423	3	0
10 fourier 1	0.3159935921949	2	180
11 fourier 1	0.3247796806857	1	180
12 fourier 1	3.101948770557	2	180
13 fourier 1	-0.4252153282372	1	0
14 fourier 1	1.809047390003	2	180
15 fourier 1	-0.04816277792592	1	0
16 fourier 1	0.9974165607242	2	180
17 fourier 1	2.348375642009	2	180
18 fourier 1	1.256156174911	1	0
19 fourier 1	0.1911926717192	3	0
20 fourier 1	2.687457892086	2	180
21 fourier 1	2.772607909663	2	180
22 fourier 1	0.09692684957115	1	0


Improper Coeffs

1 0.3666666666666667	-1	2
2 0.3333333333333333	-1	2
3 3.5	-1	2


Atoms

1	1	1	-0.413764	14.317	0.495	-0.056000002
2	1	2	0.122651	12.923	0.41	0.25799999
3	1	2	-0.41040999	12.207	1.527	0.48800001
4	1	3	0.217549	12.682	2.5009999	0.447
5	1	2	-0.119496	10.761	1.434	0.79000002
6	1	3	0.200545	10.206	2.3499999	0.96799999
7	1	2	-0.131329	10.143	0.237	0.81800002
8	1	2	-0.137467	8.6929998	0.148	1.094
9	1	2	-0.135152	7.8779998	-0.51300001	0.25099999
10	1	3	0.20385499	8.2690001	-1.003	-0.625
11	1	2	-0.30009401	6.421	-0.51300001	0.47499999
12	1	3	0.22002999	5.7909999	-1.021	-0.244
13	1	2	0.324736	5.8920002	0.12800001	1.536
14	1	4	-0.27638701	4.5079999	0.198	1.765
15	1	2	0.25426799	3.5179999	-0.156	0.83899999
16	1	2	-0.27205101	2.7720001	0.80500001	0.26899999
17	1	3	0.22379801	2.961	1.845	0.49599999
18	1	2	-0.17925	1.6569999	0.44999999	-0.62599999
19	1	3	0.21430001	1.054	1.252	-1.041
20	1	2	-0.19080301	1.349	-0.84500003	-0.87900001
21	1	5	0.014432	0.077	-1.164	-1.6950001
22	1	2	-0.19080301	-1.137	-0.59600002	-0.912
23	1	2	-0.179249	-2.2279999	-0.055	-1.507
24	1	3	0.21430001	-2.313	0.028000001	-2.5780001
25	1	2	-0.27205101	-3.3440001	0.49700001	-0.70599997
26	1	3	0.22379801	-4.1739998	0.97899997	-1.214
27	1	2	0.25426799	-3.3069999	0.433	0.634
28	1	4	-0.27638701	-4.3099999	0.99199998	1.4349999
29	1	2	0.324736	-5.677	1.028	1.118
30	1	2	-0.30009401	-6.2979999	2.2160001	1.122
31	1	3	0.22002999	-5.7379999	3.122	1.316
32	1	2	-0.135152	-7.75	2.309	0.88099998
33	1	3	0.20385499	-8.2119999	3.283	0.92400002
34	1	2	-0.137467	-8.4779997	1.2029999	0.65100002
35	1	2	-0.131329	-9.9549999	1.273	0.52600002
36	1	2	-0.133396	-10.613	0.495	-0.354
37	1	3	0.200545	-10.076	-0.15899999	-1.029
38	1	2	-0.37878701	-12.091	0.51800001	-0.41800001
39	1	3	0.214149	-12.599	-0.131	-1.1160001
40	1	2	0.195007	-12.791	1.306	0.40900001
41	1	1	-0.533889	-14.219	1.313	0.37599999
42	1	6	0.31746	-14.765	1.936	1.012
43	1	2	-0.37878701	-12.074	2.171	1.369
44	1	3	0.214149	-12.627	2.813	2.0409999
45	1	2	-0.133396	-10.738	2.161	1.4220001
46	1	3	0.200545	-10.232	2.773	2.1570001
47	1	2	-0.061689001	-7.7940001	-0.113	0.62300003
48	1	3	0.20301101	-8.3909998	-1.001	0.46200001
49	1	2	-0.325791	-6.4720001	-0.22	0.87400001
50	1	5	0.76474798	-5.8189998	-1.5880001	0.94499999
51	1	7	-0.21299499	-6.7529998	-2.586	1.1670001
52	1	7	-0.21299499	-5.1599998	-1.854	-0.245
53	1	7	-0.21299499	-4.9109998	-1.631	1.988
54	1	2	-0.27205101	-2.1619999	-0.222	1.298
55	1	3	0.22379801	-2.151	-0.32300001	2.378
56	1	2	-0.17925	-1.1569999	-0.72799999	0.57700002
57	1	3	0.21430001	-0.354	-1.247	1.089
58	1	5	-0.129989	-0.133	-2.698	-1.844
59	1	8	0.10888	-0.29800001	-3.1689999	-0.85100001
60	1	8	0.10888	0.77399999	-3.1570001	-2.293
61	1	5	-0.129747	-1.324	-3.0539999	-2.7509999
62	1	8	0.110816	-1.279	-4.1409998	-2.9719999
63	1	8	0.110816	-2.2780001	-2.8800001	-2.2049999
64	1	5	-0.151336	-1.352	-2.2709999	-4.0760002
65	1	8	0.11357	-2.237	-1.607	-4.1030002
66	1	8	0.11357	-1.471	-2.9779999	-4.9250002
67	1	5	-0.129747	-0.090999998	-1.438	-4.3130002
68	1	8	0.110816	-0.227	-0.81300002	-5.223
69	1	8	0.110816	0.75599998	-2.131	-4.5139999
70	1	5	-0.129989	0.27200001	-0.52399999	-3.1259999
71	1	8	0.10888	1.342	-0.26699999	-3.2909999
72	1	8	0.10888	-0.25099999	0.45300001	-3.217
73	1	2	-0.17925	2.214	-1.9069999	-0.264
74	1	3	0.21430001	2.0250001	-2.9560001	-0.42699999
75	1	2	-0.27205101	3.2349999	-1.574	0.54500002
76	1	3	0.22379801	3.835	-2.349	1.005
77	1	2	-0.325791	6.7930002	0.81199998	2.5090001
78	1	5	0.76474798	6.1960001	1.451	3.7390001
79	1	7	-0.21299499	5.6079998	0.47400001	4.5190001
80	1	7	-0.21299499	7.1529999	2.115	4.4920001
81	1	7	-0.21299499	5.2309999	2.3640001	3.365
82	1	2	-0.061689001	8.1219997	0.81999999	2.2839999
83	1	3	0.20301101	8.8009996	1.303	2.973
84	1	2	-0.119496	10.936	-0.99400002	0.56400001
85	1	3	0.200545	10.46	-1.97	0.58700001
86	1	2	-0.41040999	12.252	-0.91000003	0.31799999
87	1	3	0.217549	12.832	-1.816	0.148
88	1	6	0.370294	14.89	-0.37400001	-0.13600001
89	1	2	0.766159	-14.759	0.68300003	-0.289
90	1	9	-0.66590101	-15.965	0.95300001	-0.53899997
91	1	2	-0.35073099	-14.091	-0.48300001	-0.898
92	1	2	0.052648999	-14.74	-1.301	-1.742
93	1	3	0.236635	-15.778	-1.117	-1.992
94	1	2	-0.286634	-14.046	-2.464	-2.3399999
95	1	2	0.58553302	-14.76	-3.3629999	-3.267
96	1	9	-0.53825903	-15.966	-3.1589999	-3.5650001
97	1	2	0.012176	-12.759	-2.6989999	-2.0339999
98	1	3	0.211412	-12.274	-3.5539999	-2.483
99	1	2	-0.296359	-12.01	-1.8049999	-1.097
100	1	5	-0.065438002	-10.532	-2.049	-0.727
101	1	5	-0.134202	-9.6809998	-0.82999998	-1.148
102	1	8	0.088604003	-9.7959995	-0.63700002	-2.237
103	1	8	0.088604003	-8.6049995	-1.008	-0.93599999
104	1	8	0.088604003	-9.9799995	0.086999997	-0.59799999
105	1	5	-0.134202	-9.941	-3.296	-1.425
106	1	8	0.088604003	-9.9729996	-3.1849999	-2.5309999
107	1	8	0.088604003	-8.8769999	-3.4419999	-1.137
108	1	8	0.088604003	-10.493	-4.2150002	-1.131
109	1	5	-0.134202	-10.405	-2.2620001	0.79799998
110	1	8	0.088604003	-11.046	-3.1099999	1.124
111	1	8	0.088604003	-10.71	-1.357	1.364
112	1	8	0.088604003	-9.3540001	-2.4909999	1.0779999
113	1	2	-0.038835	-12.673	-0.75099999	-0.56800002
114	1	3	0.215496	-12.176	-0.075000003	0.114
115	1	1	-0.413764	14.755	1.408	-0.28799999
116	1	2	0.122651	15.797	1.493	-1.266
117	1	2	-0.41040999	16.389	0.377	-1.73
118	1	3	0.217549	16.089001	-0.59799999	-1.36
119	1	2	-0.119496	17.450001	0.46900001	-2.7579999
120	1	3	0.200545	17.909	-0.447	-3.1170001
121	1	2	-0.131329	17.82	1.666	-3.2539999
122	1	2	-0.137467	18.861	1.755	-4.3000002
123	1	2	-0.135152	18.621	2.4159999	-5.447
124	1	3	0.20385499	17.676001	2.9070001	-5.6139998
125	1	2	-0.30009401	19.622999	2.4170001	-6.527
126	1	3	0.22002999	19.381001	2.925	-7.4520001
127	1	2	0.324736	20.799	1.775	-6.3709998
128	1	4	-0.27638701	21.764	1.705	-7.388
129	1	2	0.25426799	21.552999	2.059	-8.7270002
130	1	2	-0.27205101	21.5	1.099	-9.665
131	1	3	0.22379801	21.582001	0.057999998	-9.3800001
132	1	2	-0.17925	21.384001	1.4529999	-11.089
133	1	3	0.21430001	21.379	0.65100002	-11.821
134	1	2	-0.19080301	21.348	2.7479999	-11.486
135	1	5	0.014432	21.385	3.0669999	-12.997
136	1	2	-0.19080301	22.714001	2.4990001	-13.563
137	1	2	-0.179249	22.834	1.9579999	-14.8
138	1	3	0.21430001	21.993999	1.875	-15.471
139	1	2	-0.27205101	24.122999	1.406	-15.275
140	1	3	0.22379801	24.167999	0.92400002	-16.246
141	1	2	0.25426799	25.211	1.47	-14.492
142	1	4	-0.27638701	26.437	0.91100001	-14.873
143	1	2	0.324736	26.941999	0.875	-16.183001
144	1	2	-0.30009401	27.292	-0.31200001	-16.695
145	1	3	0.22002999	27.139	-1.219	-16.122
146	1	2	-0.135152	27.908001	-0.40599999	-18.032
147	1	3	0.20385499	28.202	-1.38	-18.391001
148	1	2	-0.137467	28.125999	0.69999999	-18.764
149	1	2	-0.131329	28.851	0.63	-20.056999
150	1	2	-0.083034001	28.490999	1.408	-21.096001
151	1	3	0.200545	27.631001	2.062	-21.028999
152	1	2	-0.454456	29.266001	1.385	-22.355
153	1	3	0.225915	28.974001	2.0339999	-23.167
154	1	2	0.31231999	30.344999	0.597	-22.469999
155	1	1	-0.84661502	31.118	0.58999997	-23.672001
156	1	6	0.36271599	30.875	1.209	-24.476999
157	1	6	0.36271599	31.951	-0.033	-23.766001
158	1	2	-0.454456	30.737	-0.26800001	-21.337999
159	1	3	0.225915	31.603001	-0.91000003	-21.419001
160	1	2	-0.083034001	30.032	-0.25799999	-20.202
161	1	3	0.200545	30.356001	-0.87	-19.371
162	1	2	-0.061689001	27.719	2.016	-18.214001
163	1	3	0.20301101	27.921	2.904	-18.798
164	1	2	-0.325791	27.184999	2.1240001	-16.978001
165	1	5	0.76474798	26.877001	3.4909999	-16.398001
166	1	7	-0.21299499	27.584999	4.4889998	-17.046
167	1	7	-0.21299499	25.523001	3.757	-16.52
168	1	7	-0.21299499	27.232	3.5339999	-15.061
169	1	2	-0.27205101	25.118999	2.1259999	-13.172
170	1	3	0.22379801	26.007	2.2260001	-12.558
171	1	2	-0.17925	23.958	2.631	-12.745
172	1	3	0.21430001	23.931999	3.1500001	-11.793
173	1	5	-0.129989	21.379999	4.6009998	-13.255
174	1	8	0.10888	22.295	5.072	-12.834
175	1	8	0.10888	20.499001	5.0609999	-12.755
176	1	5	-0.129747	21.297001	4.9569998	-14.749
177	1	8	0.110816	21.087999	6.0450001	-14.835
178	1	8	0.110816	22.283001	4.783	-15.233
179	1	5	-0.151336	20.215	4.1739998	-15.516
180	1	8	0.11357	20.688999	3.51	-16.264
181	1	8	0.11357	19.579	4.881	-16.09
182	1	5	-0.129747	19.312	3.3410001	-14.604
183	1	8	0.110816	18.634001	2.7160001	-15.227
184	1	8	0.110816	18.671	4.0339999	-14.016
185	1	5	-0.129989	20.091	2.427	-13.638
186	1	8	0.10888	19.354	2.1700001	-12.845
187	1	8	0.10888	20.309	1.451	-14.122
188	1	2	-0.17925	21.371	3.8110001	-10.425
189	1	3	0.21430001	21.341999	4.8590002	-10.673
190	1	2	-0.27205101	21.468	3.477	-9.1260004
191	1	3	0.22379801	21.513	4.2529998	-8.3710003
192	1	2	-0.325791	21.099001	1.092	-5.079
193	1	5	0.76474798	22.451	0.45199999	-4.8829999
194	1	7	-0.21299499	23.427999	1.429	-4.9330001
195	1	7	-0.21299499	22.539	-0.212	-3.6689999
196	1	7	-0.21299499	22.684	-0.461	-5.8920002
197	1	2	-0.061689001	20.167	1.0829999	-4.105
198	1	3	0.20301101	20.357	0.60000002	-3.1559999
199	1	2	-0.119496	17.164	2.8970001	-2.74
200	1	3	0.200545	17.451	3.8729999	-3.1210001
201	1	2	-0.41040999	16.223	2.8139999	-1.788
202	1	3	0.217549	15.757	3.72	-1.403
203	1	6	0.370294	14.367	2.277	0.141
204	1	2	0.58553302	-14.251	-4.2129998	-3.7030001
205	1	9	-0.53825903	-14.889	-5.2880001	-3.862
206	1	2	-0.282233	-12.834	-4.0949998	-4.098
207	1	2	0.062587	-12.171	-5.1279998	-4.6409998
208	1	3	0.246687	-12.673	-6.0749998	-4.8000002
209	1	2	-0.21630999	-10.749	-4.9899998	-5.0310001
210	1	2	0.83737397	-10.037	-6.1430001	-5.6290002
211	1	9	-0.49658799	-8.8260002	-6.046	-5.9679999
212	1	10	-0.66714698	-10.704	-7.349	-5.823
213	1	11	0.41502699	-10.23	-8.1459999	-6.2309999
214	1	2	-0.011647	-10.125	-3.8139999	-4.8340001
215	1	3	0.22436801	-9.0869999	-3.7090001	-5.1170001
216	1	2	-0.29416999	-10.835	-2.6470001	-4.2309999
217	1	5	-0.065438002	-10.066	-1.324	-4.0300002
218	1	5	-0.134202	-8.8590002	-1.573	-3.0999999
219	1	8	0.088604003	-8.3079996	-0.62699997	-2.908
220	1	8	0.088604003	-8.1400003	-2.2909999	-3.546
221	1	8	0.088604003	-9.2010002	-1.982	-2.125
222	1	5	-0.134202	-9.5620003	-0.815	-5.3979998
223	1	8	0.088604003	-10.416	-0.67199999	-6.0949998
224	1	8	0.088604003	-8.8479996	-1.526	-5.862
225	1	8	0.088604003	-9.0349998	0.15800001	-5.2870002
226	1	5	-0.134202	-10.922	-0.199	-3.3970001
227	1	8	0.088604003	-11.286	-0.49700001	-2.3900001
228	1	8	0.088604003	-10.324	0.73000002	-3.2739999
229	1	8	0.088604003	-11.792	0.048999999	-4.0440001
230	1	2	0.012176	-12.134	-2.806	-3.8859999
231	1	3	0.211412	-12.708	-2.0039999	-3.4460001

Bonds

1	1	1	2
2	2	1	88
3	3	1	115
4	4	2	3
5	4	2	86
6	5	3	4
7	4	3	5
8	5	5	6
9	4	5	7
10	6	7	8
11	4	7	84
12	4	8	9
13	4	8	82
14	5	9	10
15	4	9	11
16	5	11	12
17	4	11	13
18	7	13	14
19	4	13	77
20	7	14	15
21	4	15	16
22	4	15	75
23	5	16	17
24	4	16	18
25	5	18	19
26	4	18	20
27	8	20	21
28	4	20	73
29	8	21	22
30	9	21	58
31	9	21	70
32	4	22	23
33	4	22	56
34	5	23	24
35	4	23	25
36	5	25	26
37	4	25	27
38	7	27	28
39	4	27	54
40	7	28	29
41	4	29	30
42	4	29	49
43	5	30	31
44	4	30	32
45	5	32	33
46	4	32	34
47	6	34	35
48	4	34	47
49	4	35	36
50	4	35	45
51	5	36	37
52	4	36	38
53	5	38	39
54	4	38	40
55	1	40	41
56	4	40	43
57	2	41	42
58	10	41	89
59	5	43	44
60	4	43	45
61	5	45	46
62	5	47	48
63	4	47	49
64	8	49	50
65	11	50	51
66	11	50	52
67	11	50	53
68	5	54	55
69	4	54	56
70	5	56	57
71	12	58	59
72	12	58	60
73	9	58	61
74	12	61	62
75	12	61	63
76	9	61	64
77	12	64	65
78	12	64	66
79	9	64	67
80	12	67	68
81	12	67	69
82	9	67	70
83	12	70	71
84	12	70	72
85	5	73	74
86	4	73	75
87	5	75	76
88	8	77	78
89	4	77	82
90	11	78	79
91	11	78	80
92	11	78	81
93	5	82	83
94	5	84	85
95	4	84	86
96	5	86	87
97	13	89	90
98	6	89	91
99	4	91	92
100	4	91	113
101	5	92	93
102	4	92	94
103	6	94	95
104	4	94	97
105	13	95	96
106	6	95	204
107	5	97	98
108	4	97	99
109	8	99	100
110	4	99	113
111	9	100	101
112	9	100	105
113	9	100	109
114	12	101	102
115	12	101	103
116	12	101	104
117	12	105	106
118	12	105	107
119	12	105	108
120	12	109	110
121	12	109	111
122	12	109	112
123	5	113	114
124	1	115	116
125	2	115	203
126	4	116	117
127	4	116	201
128	5	117	118
129	4	117	119
130	5	119	120
131	4	119	121
132	6	121	122
133	4	121	199
134	4	122	123
135	4	122	197
136	5	123	124
137	4	123	125
138	5	125	126
139	4	125	127
140	7	127	128
141	4	127	192
142	7	128	129
143	4	129	130
144	4	129	190
145	5	130	131
146	4	130	132
147	5	132	133
148	4	132	134
149	8	134	135
150	4	134	188
151	8	135	136
152	9	135	173
153	9	135	185
154	4	136	137
155	4	136	171
156	5	137	138
157	4	137	139
158	5	139	140
159	4	139	141
160	7	141	142
161	4	141	169
162	7	142	143
163	4	143	144
164	4	143	164
165	5	144	145
166	4	144	146
167	5	146	147
168	4	146	148
169	6	148	149
170	4	148	162
171	4	149	150
172	4	149	160
173	5	150	151
174	4	150	152
175	5	152	153
176	4	152	154
177	1	154	155
178	4	154	158
179	2	155	156
180	2	155	157
181	5	158	159
182	4	158	160
183	5	160	161
184	5	162	163
185	4	162	164
186	8	164	165
187	11	165	166
188	11	165	167
189	11	165	168
190	5	169	170
191	4	169	171
192	5	171	172
193	12	173	174
194	12	173	175
195	9	173	176
196	12	176	177
197	12	176	178
198	9	176	179
199	12	179	180
200	12	179	181
201	9	179	182
202	12	182	183
203	12	182	184
204	9	182	185
205	12	185	186
206	12	185	187
207	5	188	189
208	4	188	190
209	5	190	191
210	8	192	193
211	4	192	197
212	11	193	194
213	11	193	195
214	11	193	196
215	5	197	198
216	5	199	200
217	4	199	201
218	5	201	202
219	13	204	205
220	6	204	206
221	4	206	207
222	4	206	230
223	5	207	208
224	4	207	209
225	6	209	210
226	4	209	214
227	13	210	211
228	14	210	212
229	15	212	213
230	5	214	215
231	4	214	216
232	8	216	217
233	4	216	230
234	9	217	218
235	9	217	222
236	9	217	226
237	12	218	219
238	12	218	220
239	12	218	221
240	12	222	223
241	12	222	224
242	12	222	225
243	12	226	227
244	12	226	228
245	12	226	229
246	5	230	231

Angles

1	1	18	20	21
2	6	192	193	196
3	1	20	73	75
4	1	121	199	201
5	4	22	23	24
6	1	206	230	216
7	6	166	165	167
8	6	135	173	174
9	1	23	22	56
10	6	100	105	106
11	6	135	185	186
12	1	146	148	162
13	4	153	152	154
14	4	30	32	33
15	2	1	115	116
16	6	20	21	22
17	6	100	101	103
18	4	147	146	148
19	6	173	176	177
20	6	217	222	223
21	6	176	179	182
22	1	34	47	49
23	4	137	139	140
24	7	220	218	221
25	1	14	15	75
26	1	149	160	158
27	4	40	43	44
28	1	16	18	20
29	6	49	50	51
30	1	148	149	160
31	4	33	32	34
32	4	12	11	13
33	4	17	16	18
34	6	177	176	179
35	1	21	22	23
36	6	61	64	67
37	6	192	193	195
38	4	99	113	114
39	5	141	142	143
40	6	180	179	182
41	6	51	50	52
42	4	154	158	159
43	1	15	75	73
44	7	177	176	178
45	1	11	13	77
46	1	25	27	54
47	1	30	32	34
48	6	20	21	70
49	6	173	135	185
50	1	129	130	132
51	1	132	134	135
52	6	217	226	227
53	6	21	70	72
54	6	183	182	185
55	6	59	58	61
56	6	216	217	218
57	6	21	58	59
58	4	2	3	4
59	6	134	135	185
60	1	148	162	164
61	6	21	58	60
62	4	138	137	139
63	1	34	35	36
64	1	22	56	54
65	7	106	105	107
66	1	38	40	43
67	6	101	100	109
68	1	121	122	197
69	6	99	100	109
70	1	127	192	193
71	1	28	29	30
72	4	116	201	202
73	6	63	61	64
74	1	2	86	84
75	1	142	143	164
76	1	90	89	91
77	4	140	139	141
78	7	174	173	175
79	6	22	21	70
80	4	36	38	39
81	1	214	216	217
82	1	116	117	119
83	4	98	97	99
84	6	178	176	179
85	4	37	36	38
86	1	137	136	171
87	1	125	127	192
88	1	23	25	27
89	4	126	125	127
90	6	51	50	53
91	6	62	61	64
92	6	179	182	184
93	7	102	101	104
94	1	209	210	212
95	4	10	9	11
96	1	25	27	28
97	1	35	34	47
98	6	164	165	167
99	1	29	49	50
100	3	40	41	42
101	4	4	3	5
102	4	148	162	163
103	6	69	67	70
104	1	95	204	205
105	1	128	127	192
106	4	7	84	85
107	1	207	206	230
108	6	58	61	64
109	4	24	23	25
110	4	149	150	151
111	4	91	92	93
112	6	20	21	58
113	4	149	160	161
114	1	7	8	82
115	4	74	73	75
116	3	116	115	203
117	6	217	218	219
118	3	1	115	203
119	1	29	49	47
120	1	38	40	41
121	4	206	230	231
122	6	61	64	66
123	1	162	164	165
124	1	92	94	97
125	3	2	1	88
126	1	41	40	43
127	4	189	188	190
128	4	124	123	125
129	4	19	18	20
130	1	95	204	206
131	4	15	16	17
132	6	21	58	61
133	1	5	7	8
134	1	96	95	204
135	1	47	49	50
136	4	143	144	145
137	1	28	29	49
138	6	175	173	176
139	6	173	176	179
140	1	91	92	94
141	7	183	182	184
142	4	116	117	118
143	6	136	135	185
144	6	67	70	71
145	6	22	21	58
146	1	94	95	96
147	6	173	176	178
148	1	143	144	146
149	4	54	56	57
150	6	135	173	175
151	4	3	5	6
152	4	199	201	202
153	6	181	179	182
154	7	219	218	221
155	1	40	43	45
156	4	84	86	87
157	1	209	210	211
158	4	158	160	161
159	6	135	185	182
160	6	135	173	176
161	1	136	137	139
162	1	142	141	169
163	1	205	204	206
164	4	15	75	76
165	1	1	2	86
166	1	141	169	171
167	1	149	150	152
168	1	150	149	160
169	4	150	152	153
170	1	130	129	190
171	6	60	58	61
172	7	102	101	103
173	4	133	132	134
174	6	222	217	226
175	6	58	61	63
176	6	182	185	186
177	6	100	109	112
178	6	136	135	173
179	6	217	218	220
180	4	131	130	132
181	1	32	34	47
182	6	217	222	225
183	4	2	86	87
184	1	28	27	54
185	4	29	30	31
186	6	176	179	180
187	1	116	201	199
188	6	58	21	70
189	4	35	36	37
190	3	154	155	157
191	1	142	143	144
192	4	123	125	126
193	1	119	121	122
194	1	123	125	127
195	4	6	5	7
196	4	31	30	32
197	6	192	193	194
198	1	89	91	113
199	4	9	11	12
200	4	170	169	171
201	4	26	25	27
202	6	65	64	67
203	7	223	222	225
204	1	139	141	142
205	7	71	70	72
206	1	128	129	130
207	6	218	217	222
208	1	137	139	141
209	6	79	78	80
210	1	139	141	169
211	6	134	135	136
212	1	122	197	192
213	1	128	129	190
214	6	217	222	224
215	6	67	70	72
216	1	29	30	32
217	4	208	207	209
218	6	174	173	176
219	1	27	54	56
220	1	13	77	82
221	5	13	14	15
222	1	143	164	162
223	1	204	206	207
224	1	149	148	162
225	1	18	20	73
226	6	58	61	62
227	1	2	3	5
228	6	49	50	52
229	1	1	2	3
230	1	117	116	201
231	7	223	222	224
232	1	22	23	25
233	1	146	148	149
234	1	35	36	38
235	1	95	94	97
236	6	195	193	196
237	1	129	190	188
238	4	216	230	231
239	3	88	1	115
240	6	135	185	187
241	1	97	99	100
242	1	122	123	125
243	4	48	47	49
244	7	68	67	69
245	1	121	122	123
246	1	92	94	95
247	6	61	64	65
248	4	20	73	74
249	1	9	8	82
250	6	100	105	108
251	6	217	226	228
252	7	228	226	229
253	4	85	84	86
254	4	43	45	46
255	1	14	15	16
256	3	154	155	156
257	4	209	214	215
258	6	100	109	111
259	6	77	78	79
260	1	135	136	171
261	6	80	78	81
262	6	217	226	229
263	6	21	70	71
264	6	64	67	69
265	7	110	109	112
266	1	100	99	113
267	6	184	182	185
268	4	39	38	40
269	7	186	185	187
270	6	101	100	105
271	6	99	100	105
272	4	23	25	26
273	1	32	34	35
274	5	210	212	213
275	1	91	113	99
276	4	120	119	121
277	3	42	41	89
278	7	111	109	112
279	4	77	82	83
280	6	79	78	81
281	1	97	99	113
282	1	13	77	78
283	6	179	182	185
284	4	8	82	83
285	5	127	128	129
286	1	152	154	158
287	7	106	105	108
288	6	216	217	226
289	1	7	84	86
290	1	117	119	121
291	6	49	50	53
292	1	209	214	216
293	4	151	150	152
294	4	192	197	198
295	7	62	61	63
296	6	176	179	181
297	6	216	217	222
298	4	144	146	147
299	6	64	67	68
300	1	148	149	150
301	4	134	188	189
302	1	136	171	169
303	7	65	64	66
304	1	125	127	128
305	4	163	162	164
306	1	9	11	13
307	4	35	45	46
308	6	77	78	80
309	6	100	105	107
310	1	16	15	75
311	1	21	22	56
312	6	99	100	101
313	7	180	179	181
314	4	122	197	198
315	4	122	123	124
316	1	89	91	92
317	1	193	192	197
318	1	206	207	209
319	1	11	13	14
320	1	41	89	90
321	6	68	67	70
322	6	164	165	168
323	4	136	171	172
324	1	123	122	197
325	1	127	192	197
326	7	224	222	225
327	1	130	132	134
328	1	30	29	49
329	4	141	169	170
330	4	22	56	57
331	1	155	154	158
332	4	200	199	201
333	6	164	165	166
334	1	3	2	86
335	1	8	82	77
336	4	27	54	55
337	4	73	75	76
338	1	132	134	188
339	4	206	207	208
340	1	7	8	9
341	1	15	16	18
342	6	52	50	53
343	4	55	54	56
344	1	204	206	230
345	6	218	217	226
346	5	27	28	29
347	6	105	100	109
348	1	34	35	45
349	6	64	67	70
350	6	66	64	67
351	6	167	165	168
352	1	3	5	7
353	1	35	45	43
354	1	115	116	117
355	1	143	164	165
356	7	110	109	111
357	4	169	171	172
358	1	152	154	155
359	1	92	91	113
360	4	129	130	131
361	3	156	155	157
362	1	36	35	45
363	1	144	143	164
364	4	136	137	138
365	6	194	193	196
366	6	100	101	104
367	4	121	199	200
368	4	118	117	119
369	1	144	146	148
370	1	207	209	214
371	1	8	9	11
372	1	119	121	199
373	6	166	165	168
374	4	34	47	48
375	1	135	134	188
376	4	159	158	160
377	4	44	43	45
378	2	40	41	89
379	6	100	101	102
380	4	130	132	133
381	1	217	216	230
382	4	94	97	98
383	1	36	38	40
384	4	129	190	191
385	1	154	158	160
386	1	41	89	91
387	4	8	9	10
388	8	211	210	212
389	6	100	109	110
390	4	91	113	114
391	6	179	182	183
392	6	21	70	67
393	6	134	135	173
394	4	188	190	191
395	6	77	78	81
396	7	219	218	220
397	1	214	216	230
398	4	145	144	146
399	1	135	136	137
400	1	207	209	210
401	2	2	1	115
402	1	78	77	82
403	6	194	193	195
404	6	217	218	221
405	1	134	188	190
406	1	210	209	214
407	7	59	58	60
408	1	94	95	204
409	1	122	121	199
410	7	107	105	108
411	4	93	92	94
412	7	227	226	228
413	4	117	119	120
414	1	115	116	201
415	1	14	13	77
416	4	215	214	216
417	1	21	20	73
418	7	103	101	104
419	1	5	7	84
420	6	182	185	187
421	1	8	7	84
422	4	16	18	19
423	1	94	97	99
424	7	227	226	229
425	1	150	152	154

Dihedrals

1	7	20	21	70	67
2	7	136	135	173	174
3	8	135	185	182	184
4	1	193	192	197	198
5	8	225	222	217	226
6	7	22	21	58	61
7	2	3	2	1	115
8	1	21	22	23	25
9	1	133	132	134	135
10	8	173	176	179	180
11	1	130	129	190	191
12	1	28	27	54	56
13	8	61	64	67	69
14	1	138	137	139	141
15	1	209	214	216	217
16	9	173	135	185	182
16	10	173	135	185	182
16	11	173	135	185	182
17	8	174	173	176	179
18	1	93	92	91	113
19	1	125	127	192	197
20	1	207	206	230	216
21	19	69	67	70	71
22	1	128	129	190	191
23	7	99	100	101	102
24	7	216	217	222	225
25	6	195	193	192	197
26	1	23	25	27	54
27	1	155	154	158	159
28	1	149	160	158	159
29	1	7	8	9	10
30	7	134	135	185	186
31	1	135	136	171	169
32	1	13	77	82	83
33	8	102	101	100	109
34	4	119	121	122	197
35	1	21	20	73	75
36	1	128	127	192	193
37	1	35	36	38	40
38	1	148	149	150	152
39	19	174	173	176	178
40	6	29	49	50	51
41	8	177	176	179	182
42	8	180	179	182	185
43	1	135	136	137	139
44	1	144	146	148	149
45	7	99	100	109	111
46	16	205	204	206	230
47	1	4	3	5	6
48	1	145	144	146	147
49	1	14	15	75	73
50	6	23	22	21	70
51	6	47	49	50	51
52	8	108	105	100	109
53	2	42	41	40	43
54	7	99	100	105	106
55	8	101	100	109	111
56	1	122	197	192	193
57	1	92	94	97	99
58	1	14	13	77	82
59	1	25	27	54	55
60	16	92	94	95	204
61	1	23	22	56	54
62	8	101	100	105	106
63	8	179	182	185	187
64	1	15	75	73	74
65	6	136	135	134	188
66	8	175	173	176	179
67	6	143	164	165	166
68	2	3	2	1	88
69	1	135	136	171	172
70	1	208	207	206	230
71	1	30	32	34	35
72	8	61	64	67	68
73	7	134	135	185	182
74	1	200	199	201	202
75	1	17	16	15	75
76	1	9	11	13	77
77	7	216	217	222	224
78	6	109	100	99	113
79	6	13	77	78	80
80	3	88	1	115	203
81	4	123	122	121	199
82	8	218	217	226	229
83	1	116	117	119	120
84	4	32	34	35	36
85	7	22	21	58	59
86	2	152	154	155	156
87	1	140	139	141	142
88	8	105	100	109	110
89	5	13	14	15	16
90	1	31	30	29	49
91	1	37	36	38	40
92	1	142	141	169	170
93	8	64	67	70	72
94	1	140	139	141	169
95	3	2	1	115	116
96	1	204	206	230	231
97	1	150	149	160	161
98	1	149	148	162	164
99	1	2	3	5	7
100	1	11	9	8	82
101	1	36	35	45	46
102	1	16	18	20	73
103	1	21	22	56	57
104	1	25	23	22	56
105	16	94	95	204	205
106	1	55	54	56	57
107	1	117	119	121	199
108	1	124	123	122	197
109	4	5	7	8	82
110	1	131	130	132	134
111	1	149	150	152	153
112	1	116	117	119	121
113	1	23	25	27	28
114	7	20	21	58	59
115	1	120	119	121	122
116	1	12	11	13	77
117	1	24	23	22	56
118	1	131	130	129	190
119	1	35	34	47	48
120	1	6	5	7	84
121	6	18	20	21	22
122	1	19	18	20	21
123	8	103	101	100	105
124	1	9	8	82	77
125	16	92	94	95	96
126	1	95	94	97	99
127	7	20	21	58	60
128	1	44	43	45	46
129	8	218	217	222	225
130	9	61	64	67	70
130	10	61	64	67	70
130	11	61	64	67	70
131	2	156	155	154	158
132	14	40	41	89	91
132	15	40	41	89	91
133	1	4	3	2	86
134	1	145	144	146	148
135	1	14	13	77	78
136	8	178	176	179	182
137	1	118	117	116	201
138	6	127	192	193	196
139	7	216	217	218	219
140	1	11	13	77	82
141	7	216	217	226	229
142	1	6	5	7	8
143	1	10	9	11	13
144	20	209	210	212	213
145	1	74	73	75	76
146	16	212	210	209	214
147	16	211	210	209	214
148	4	82	8	7	84
149	1	98	97	99	100
150	1	3	2	86	87
151	6	23	22	21	58
152	16	96	95	94	97
153	6	162	164	165	167
154	1	144	143	164	165
155	1	129	130	132	134
156	1	33	32	34	47
157	1	15	16	18	19
158	1	152	150	149	160
159	1	36	35	45	43
160	16	207	209	210	212
161	1	210	209	214	215
162	16	90	89	91	92
163	1	28	29	49	50
164	4	45	35	34	47
165	1	139	137	136	171
166	6	18	20	21	70
167	8	104	101	100	105
168	19	180	179	182	183
169	1	128	129	130	132
170	1	28	27	54	55
171	8	173	176	179	181
172	5	11	13	14	15
173	1	149	148	162	163
174	6	196	193	192	197
175	6	13	77	78	81
176	1	132	134	188	189
177	8	218	217	222	224
178	1	3	2	86	84
179	6	222	217	216	230
180	19	180	179	182	184
181	1	189	188	190	191
182	1	29	30	32	33
183	1	89	91	92	93
184	7	134	135	173	176
185	1	14	15	16	17
186	8	135	173	176	178
187	1	214	216	230	231
188	5	129	128	127	192
189	19	178	176	179	180
190	9	21	58	61	64
190	10	21	58	61	64
190	11	21	58	61	64
191	2	152	154	155	157
192	6	226	217	216	230
193	2	1	115	116	201
194	16	96	95	204	206
195	1	143	144	146	148
196	1	15	16	18	20
197	1	128	129	130	131
198	8	60	58	61	64
199	1	207	206	230	231
200	1	123	125	127	192
201	1	20	73	75	76
202	1	145	144	143	164
203	7	99	100	109	110
204	7	136	135	185	186
205	1	129	130	132	133
206	8	58	61	64	65
207	5	29	28	27	54
208	4	36	35	34	47
209	6	134	135	136	171
210	8	101	100	109	110
211	1	116	201	199	121
212	7	99	100	101	104
213	1	159	158	160	161
214	1	118	117	119	121
215	1	39	38	40	43
216	1	136	137	139	140
217	1	151	150	149	160
218	6	171	136	135	185
219	1	11	13	77	78
220	1	206	230	216	214
221	8	58	61	64	66
222	1	38	36	35	45
223	16	95	204	206	207
224	7	216	217	218	220
225	1	217	216	230	231
226	1	29	30	32	34
227	1	89	91	92	94
228	1	115	116	117	119
229	1	14	15	75	76
230	1	35	34	47	49
231	6	132	134	135	185
232	1	121	199	201	202
233	1	154	158	160	161
234	7	22	21	70	71
235	7	136	135	185	182
236	1	35	36	38	39
237	5	139	141	142	143
238	8	62	61	64	67
239	1	24	23	25	27
240	7	20	21	58	61
241	1	35	45	43	40
242	1	91	92	94	97
243	19	65	64	67	69
244	1	1	2	3	5
245	6	143	164	165	168
246	19	59	58	61	63
247	1	40	43	45	46
248	1	32	34	47	48
249	8	218	217	226	228
250	1	22	23	25	26
251	1	209	207	206	230
252	1	17	16	18	19
253	16	207	209	210	211
254	1	151	150	152	153
255	4	9	8	7	84
256	3	2	1	115	203
257	4	197	122	121	199
258	1	117	116	201	202
259	4	150	149	148	162
260	6	214	216	217	226
261	8	220	218	217	222
262	1	125	127	192	193
263	4	146	148	149	150
264	1	121	122	197	192
265	9	176	179	182	185
265	10	176	179	182	185
265	11	176	179	182	185
266	6	173	135	134	188
267	19	183	182	185	187
268	2	38	40	41	89
269	2	201	116	115	203
270	6	18	20	21	58
271	6	171	136	135	173
272	19	175	173	176	178
273	1	78	77	82	83
274	1	121	122	123	125
275	6	214	216	217	222
276	8	59	58	21	70
277	1	139	141	169	171
278	1	132	130	129	190
279	1	33	32	34	35
280	6	132	134	135	173
281	4	146	148	149	160
282	8	219	218	217	226
283	9	21	70	67	64
283	10	21	70	67	64
283	11	21	70	67	64
284	1	142	141	169	171
285	1	21	22	23	24
286	1	18	16	15	75
287	8	222	217	226	227
288	1	30	29	49	47
289	1	28	29	30	31
290	1	8	7	84	85
291	8	21	58	61	63
292	19	177	176	179	180
293	19	65	64	67	68
294	1	41	40	43	44
295	6	137	136	135	185
296	1	206	230	216	217
297	19	184	182	185	187
298	8	218	217	222	223
299	8	219	218	217	222
300	1	130	132	134	135
301	1	5	7	84	85
302	1	17	16	18	20
303	4	119	121	122	123
304	1	132	134	188	190
305	1	16	15	75	73
306	2	1	115	116	117
307	1	126	125	127	128
308	1	136	137	139	141
309	1	93	92	94	97
310	1	39	38	40	41
311	1	37	36	35	45
312	7	216	217	226	228
313	1	4	3	5	7
314	1	135	136	137	138
315	6	194	193	192	197
316	1	22	56	54	55
317	1	7	8	82	83
318	2	86	2	1	115
319	19	69	67	70	72
320	1	5	3	2	86
321	17	42	41	89	90
321	18	42	41	89	90
322	1	122	121	199	200
323	1	123	125	127	128
324	1	147	146	148	162
325	1	12	11	13	14
326	8	60	58	21	70
327	8	63	61	64	67
328	1	116	201	199	200
329	1	115	116	117	118
330	8	179	182	185	186
331	1	149	160	158	154
332	8	173	135	185	187
333	7	99	100	101	103
334	1	21	22	56	54
335	19	59	58	61	62
336	8	221	218	217	226
337	1	34	35	36	37
338	1	28	29	30	32
339	1	137	139	141	142
340	1	31	30	32	34
341	16	94	95	204	206
342	2	117	116	115	203
343	7	99	100	109	112
344	8	102	101	100	105
345	6	137	136	135	173