Title

193 atoms
206 bonds
341 angles
503 dihedrals
276 impropers

10 atom types
14 bond types
7 angle types
17 dihedral types
3 improper types
-22.20499992 77.79500008 xlo xhi
-3.348999977 96.65100002 ylo yhi
-4.025000095 95.9749999 zlo zhi
0.0 0.0 0.0 xy xz yz

Masses

1	14.00672
2	12.01078
3	1.007947
4	15.99943
5	12.01078
6	1.007947
7	18.998403
8	15.99943
9	15.99943
10	1.007947


Pair Coeffs

1	0.16769152	3.206876
2	0.086879315	3.4806469
3	0.015611343	2.5725815
4	0.16846514	3.0251065
5	0.10884061	3.3795318
6	0.014090815	1.1034277
7	0.061	3.1181455
8	0.2102061	3.0398122
9	0.20947353	2.99716
10	1.2326e-05	0.53453923

Bond Coeffs

1 harmonic	390.03554688505	1.390160554689
2 harmonic	505.144496193	1.019481865027
3 harmonic	422.7150220147	1.421786517481
4 harmonic	360.7852444772	1.387193227181
5 harmonic	397.2545789619	1.085358495916
6 harmonic	279.1350963404	1.454628925034
7 harmonic	425.69104206635	1.362945806494
8 harmonic	289.73813263395	1.498646816465
9 harmonic	264.62148576755	1.52190126495
10 harmonic	492.76746816345	1.381897776683
11 harmonic	340.45121009905	1.358690858053
12 harmonic	582.698766451	1.225198386222
13 harmonic	385.7604595587	1.369745182308
14 harmonic	543.5267831885	0.9716763312559


Angle Coeffs

1 harmonic	57.8982893754	126.8062420451
2 harmonic	55.42182150775	117.3465570514
3 harmonic	63.44422595415	115.5071327674
4 harmonic	34.066775159195	129.1835929926
5 harmonic	65.09061609600001	110.3538806181
6 harmonic	53.20531626545	116.5475862634
7 harmonic	201.41175231035	127.4691416191


Dihedral Coeffs

1 fourier 1	3.661930099076	2	180
2 fourier 1	1.193093382682	2	180
3 fourier 1	0.02021088501612	1	0
4 fourier 1	1.163235555439	2	180
5 fourier 1	1.532232714475	2	180
6 fourier 1	0.02664938770063	3	0
7 fourier 1	0.1155372516788	3	0
8 fourier 1	3.101948770557	2	180
9 fourier 1	-0.4252153282372	1	0
10 fourier 1	1.809047390003	2	180
11 fourier 1	-0.04816277792592	1	0
12 fourier 1	0.9974165607242	2	180
13 fourier 1	2.348375642009	2	180
14 fourier 1	1.256156174911	1	0
15 fourier 1	2.687457892086	2	180
16 fourier 1	2.772607909663	2	180
17 fourier 1	0.09692684957115	1	0


Improper Coeffs

1 0.3666666666666667	-1	2
2 0.3333333333333333	-1	2
3 3.5	-1	2


Atoms

1	1	1	-0.41210201	-13.347	3.1819999	0.139
2	1	2	0.12628099	-12.174	2.4000001	-0.1
3	1	2	-0.40702701	-11.19	2.8710001	-0.88
4	1	3	0.22114	-11.271	3.848	-1.339
5	1	2	-0.114635	-9.9700003	2.069	-1.1059999
6	1	3	0.20351601	-9.1750002	2.4949999	-1.706
7	1	2	-0.128319	-9.8339996	0.85299999	-0.53899997
8	1	2	-0.134545	-8.5880003	0.061000001	-0.71100003
9	1	2	-0.129803	-7.9549999	0.0060000001	-1.898
10	1	3	0.20680501	-8.3529997	0.514	-2.767
11	1	2	-0.296258	-6.6849999	-0.73100001	-2.033
12	1	3	0.223818	-6.1550002	-0.704	-2.977
13	1	2	0.328852	-6.1469998	-1.3559999	-0.97899997
14	1	4	-0.272282	-4.881	-1.934	-1.113
15	1	2	0.257936	-3.744	-1.443	-0.456
16	1	2	-0.27773601	-2.6400001	-2.1960001	-0.41299999
17	1	3	0.228085	-2.6329999	-3.174	-0.87599999
18	1	2	-0.152971	-1.431	-1.715	0.285
19	1	3	0.215664	-0.57200003	-2.3740001	0.317
20	1	2	-0.080962002	-1.391	-0.49200001	0.86500001
21	1	5	-0.26326799	-0.124	-0.046	1.638
22	1	2	-0.080962002	1.125	-0.31799999	0.76300001
23	1	2	-0.152971	2.3080001	-0.73000002	1.277
24	1	3	0.215664	2.4360001	-0.94499999	2.325
25	1	2	-0.27773601	3.497	-0.88700002	0.41800001
26	1	3	0.228085	4.4159999	-1.25	0.86000001
27	1	2	0.257936	3.438	-0.58700001	-0.889
28	1	4	-0.272282	4.553	-0.72100002	-1.729
29	1	2	0.328852	5.8800001	-0.447	-1.355
30	1	2	-0.296258	6.1700001	0.54699999	-0.498
31	1	3	0.223818	5.3850002	1.1619999	-0.078000002
32	1	2	-0.129803	7.5669999	0.84600002	-0.139
33	1	3	0.20680501	7.7589998	1.668	0.54000002
34	1	2	-0.134545	8.5760002	0.133	-0.66900003
35	1	2	-0.128319	9.9860001	0.43799999	-0.31099999
36	1	2	-0.12865201	10.961	0.38699999	-1.239
37	1	3	0.20351601	10.739	0.14	-2.2690001
38	1	2	-0.37512401	12.359	0.70099998	-0.88
39	1	3	0.217613	13.123	0.65700001	-1.646
40	1	2	0.198539	12.674	1.044	0.37900001
41	1	1	-0.532309	14.025	1.354	0.73000002
42	1	6	0.319296	14.789	1.317	0.018999999
43	1	2	-0.37512401	11.612	1.099	1.4069999
44	1	3	0.217613	11.86	1.365	2.427
45	1	2	-0.12865201	10.345	0.81099999	1.085
46	1	3	0.20351601	9.5869999	0.83600003	1.857
47	1	2	-0.057029001	8.2589998	-0.96399999	-1.622
48	1	3	0.205856	9.0719995	-1.549	-2.03
49	1	2	-0.32233599	6.9819999	-1.245	-1.957
50	1	5	0.76650298	6.6430001	-2.3570001	-2.9219999
51	1	7	-0.20826501	7.77	-3.0350001	-3.3559999
52	1	7	-0.20826501	5.8000002	-3.2620001	-2.3010001
53	1	7	-0.20826501	5.9990001	-1.825	-4.0250001
54	1	2	-0.27773601	2.161	-0.133	-1.4680001
55	1	3	0.228085	2.1070001	0.109	-2.5209999
56	1	2	-0.152971	1.08	0.013	-0.69300002
57	1	3	0.215664	0.16500001	0.37900001	-1.142
58	1	5	0.75267798	-0.122	-0.84299999	2.9890001
59	1	7	-0.201904	0.792	-0.32100001	3.888
60	1	7	-0.201904	-1.3710001	-0.78200001	3.5869999
61	1	7	-0.201904	0.184	-2.178	2.7750001
62	1	5	0.75267798	-0.115	1.4859999	1.951
63	1	7	-0.201904	-0.36300001	2.2219999	0.80500001
64	1	7	-0.201904	-1.062	1.812	2.9070001
65	1	7	-0.201904	1.1210001	1.874	2.4419999
66	1	2	-0.152971	-2.6329999	0.34	0.80800003
67	1	3	0.215664	-2.6830001	1.317	1.261
68	1	2	-0.27773601	-3.7290001	-0.104	0.182
69	1	3	0.228085	-4.6079998	0.52700001	0.14399999
70	1	2	-0.32233599	-6.8899999	-1.403	0.31799999
71	1	5	0.76650298	-6.3600001	-2.1860001	1.499
72	1	7	-0.20826501	-5.6339998	-3.2839999	1.074
73	1	7	-0.20826501	-7.3990002	-2.6470001	2.29
74	1	7	-0.20826501	-5.5479999	-1.374	2.266
75	1	2	-0.057029001	-8.0240002	-0.68699998	0.44100001
76	1	3	0.205856	-8.5389996	-0.64999998	1.393
77	1	2	-0.114635	-10.937	0.33000001	0.30899999
78	1	3	0.20351601	-10.863	-0.653	0.75599998
79	1	2	-0.40702701	-12.039	1.061	0.51700002
80	1	3	0.22114	-12.834	0.66799998	1.137
81	1	6	0.37255901	-13.455	4.1360002	-0.27399999
82	1	2	0.76749498	14.273	1.636	1.726
83	1	8	-0.65905398	15.483	1.632	2.0769999
84	1	2	-0.35444	13.203	2.02	2.665
85	1	2	-0.075520001	13.476	2.382	3.9319999
86	1	3	0.222415	14.494	2.402	4.302
87	1	2	-0.243991	12.383	2.7620001	4.849
88	1	3	0.21252701	12.613	3.052	5.8670001
89	1	2	-0.023490001	11.114	2.7490001	4.4260001
90	1	3	0.22191	10.324	3.0309999	5.1110001
91	1	2	-0.29352701	10.795	2.3529999	3.0320001
92	1	2	0.58746201	9.3999996	2.336	2.5569999
93	1	8	-0.52779102	8.4530001	2.6570001	3.323
94	1	2	0.055682998	11.794	2.0079999	2.2
95	1	3	0.23953401	11.577	1.716	1.179
96	1	1	-0.41210201	-14.107	2.819	0.755
97	1	2	0.12628099	-14.585	3.6010001	1.852
98	1	2	-0.40702701	-15.552	3.1300001	2.6530001
99	1	3	0.22114	-15.984	2.1530001	2.477
100	1	2	-0.114635	-16.028	3.9319999	3.799
101	1	3	0.20351601	-16.780001	3.5050001	4.4510002
102	1	2	-0.128319	-15.502	5.1479998	4.0500002
103	1	2	-0.134545	-15.929	5.9400001	5.2319999
104	1	2	-0.129803	-17.221001	5.9949999	5.6040001
105	1	3	0.20680501	-17.989	5.487	5.0339999
106	1	2	-0.296258	-17.618	6.7319999	6.8189998
107	1	3	0.223818	-18.650999	6.704	7.1399999
108	1	2	0.328852	-16.698999	7.3569999	7.5650001
109	1	4	-0.272282	-17.093	7.9349999	8.7749996
110	1	2	0.257936	-16.687	7.4429998	10.024
111	1	2	-0.27773601	-16.875	8.1969995	11.112
112	1	3	0.228085	-17.329	9.1750002	11.023
113	1	2	-0.152971	-16.444	7.7160001	12.44
114	1	3	0.215664	-16.591	8.375	13.287
115	1	2	-0.080962002	-15.885	6.493	12.6
116	1	5	-0.26326799	-15.392	6.0469999	14
117	1	2	-0.080962002	-16.507999	6.3179998	15.04
118	1	2	-0.152971	-16.250999	6.7309999	16.302999
119	1	3	0.215664	-15.253	6.9460001	16.646999
120	1	2	-0.27773601	-17.339001	6.888	17.288
121	1	3	0.228085	-17.098	7.25	18.278
122	1	2	0.257936	-18.605	6.5879998	16.958
123	1	4	-0.272282	-19.658001	6.7220001	17.874001
124	1	2	0.328852	-19.569	6.448	19.249001
125	1	2	-0.296258	-18.791	5.4530001	19.712
126	1	3	0.223818	-18.216999	4.8390002	19.031
127	1	2	-0.129803	-18.73	5.1550002	21.153
128	1	3	0.20680501	-18.106001	4.3330002	21.482
129	1	2	-0.134545	-19.459	5.868	22.030001
130	1	2	-0.128319	-19.402	5.5619998	23.483
131	1	2	-0.077999003	-20.513	5.6139998	24.243999
132	1	3	0.20351601	-21.474001	5.8610001	23.812
133	1	2	-0.45116901	-20.452	5.2989998	25.687
134	1	3	0.229651	-21.360001	5.3439999	26.275
135	1	2	0.31772399	-19.287001	4.9569998	26.256001
136	1	1	-0.844877	-19.224001	4.6459999	27.650999
137	1	6	0.36603099	-18.318001	4.3699999	28.091999
138	1	6	0.36603099	-20.077999	4.684	28.25
139	1	2	-0.45116901	-18.059999	4.902	25.431
140	1	3	0.229651	-17.114	4.6360002	25.886
141	1	2	-0.077999003	-18.111	5.1900001	24.125
142	1	3	0.20351601	-17.198	5.165	23.544001
143	1	2	-0.057029001	-20.325001	6.9650002	21.521
144	1	3	0.205856	-20.893	7.5500002	22.232
145	1	2	-0.32233599	-20.386999	7.2449999	20.202999
146	1	5	0.76650298	-21.26	8.3579998	19.67
147	1	7	-0.20826501	-21.919001	9.0360003	20.681999
148	1	7	-0.20826501	-20.478001	9.2629995	18.975
149	1	7	-0.20826501	-22.205	7.8249998	18.811001
150	1	2	-0.27773601	-18.905001	6.1329999	15.589
151	1	3	0.228085	-19.924999	5.8920002	15.317
152	1	2	-0.152971	-17.923	5.9879999	14.693
153	1	3	0.215664	-18.172001	5.6220002	13.705
154	1	5	0.75267798	-14.072	6.8439999	14.283
155	1	7	-0.201904	-13.382	6.322	15.364
156	1	7	-0.201904	-13.226	6.783	13.186
157	1	7	-0.201904	-14.345	8.1789999	14.538
158	1	5	0.75267798	-15.088	4.5149999	14.074
159	1	7	-0.201904	-16.158001	3.779	13.593
160	1	7	-0.201904	-13.956	4.1880002	13.347
161	1	7	-0.201904	-14.865	4.1269999	15.385
162	1	2	-0.152971	-15.682	5.6609998	11.373
163	1	3	0.215664	-15.229	4.684	11.419
164	1	2	-0.27773601	-16.066999	6.105	10.171
165	1	3	0.228085	-15.921	5.474	9.3039999
166	1	2	-0.32233599	-15.276	7.4039998	7.1079998
167	1	5	0.76650298	-14.231	8.1870003	7.8720002
168	1	7	-0.20826501	-14.798	9.2849998	8.493
169	1	7	-0.20826501	-13.241	8.6479998	7.0190001
170	1	7	-0.20826501	-13.65	7.3740001	8.8260002
171	1	2	-0.057029001	-14.919	6.6880002	6.0240002
172	1	3	0.205856	-13.881	6.6500001	5.7179999
173	1	2	-0.114635	-14.443	5.671	3.148
174	1	3	0.20351601	-14.02	6.6539998	3.313
175	1	2	-0.40702701	-14.01	4.9400001	2.1129999
176	1	3	0.22114	-13.238	5.3330002	1.464
177	1	6	0.37255901	-14.489	1.865	0.56300002
178	1	2	0.58746201	9.1739998	2.046	1.539
179	1	8	-0.52779102	9.6599998	2.7190001	0.59100002
180	1	2	-0.289022	8.3079996	0.87900001	1.286
181	1	2	-0.023490001	8.0050001	0.48699999	0.035
182	1	3	0.22191	8.3879995	1.0190001	-0.82599998
183	1	2	-0.245142	7.1360002	-0.685	-0.186
184	1	3	0.21252701	6.8969998	-0.99199998	-1.196
185	1	2	-0.061358001	6.645	-1.3660001	0.85500002
186	1	3	0.23286501	6.0089998	-2.223	0.67299998
187	1	2	-0.218824	6.9679999	-0.95099998	2.244
188	1	2	0.83848	6.4169998	-1.714	3.385
189	1	8	-0.48887101	6.6799998	-1.377	4.572
190	1	9	-0.66545802	5.599	-2.8169999	3.1559999
191	1	10	0.41748399	5.2150002	-3.349	3.928
192	1	2	0.072393	7.7620001	0.121	2.4389999
193	1	3	0.249603	8.0120001	0.44400001	3.4419999

Bonds

1	1	1	2
2	2	1	81
3	3	1	96
4	4	2	3
5	4	2	79
6	5	3	4
7	4	3	5
8	5	5	6
9	4	5	7
10	6	7	8
11	4	7	77
12	4	8	9
13	4	8	75
14	5	9	10
15	4	9	11
16	5	11	12
17	4	11	13
18	7	13	14
19	4	13	70
20	7	14	15
21	4	15	16
22	4	15	68
23	5	16	17
24	4	16	18
25	5	18	19
26	4	18	20
27	8	20	21
28	4	20	66
29	8	21	22
30	9	21	58
31	9	21	62
32	4	22	23
33	4	22	56
34	5	23	24
35	4	23	25
36	5	25	26
37	4	25	27
38	7	27	28
39	4	27	54
40	7	28	29
41	4	29	30
42	4	29	49
43	5	30	31
44	4	30	32
45	5	32	33
46	4	32	34
47	6	34	35
48	4	34	47
49	4	35	36
50	4	35	45
51	5	36	37
52	4	36	38
53	5	38	39
54	4	38	40
55	1	40	41
56	4	40	43
57	2	41	42
58	10	41	82
59	5	43	44
60	4	43	45
61	5	45	46
62	5	47	48
63	4	47	49
64	8	49	50
65	11	50	51
66	11	50	52
67	11	50	53
68	5	54	55
69	4	54	56
70	5	56	57
71	11	58	59
72	11	58	60
73	11	58	61
74	11	62	63
75	11	62	64
76	11	62	65
77	5	66	67
78	4	66	68
79	5	68	69
80	8	70	71
81	4	70	75
82	11	71	72
83	11	71	73
84	11	71	74
85	5	75	76
86	5	77	78
87	4	77	79
88	5	79	80
89	12	82	83
90	6	82	84
91	4	84	85
92	4	84	94
93	5	85	86
94	4	85	87
95	5	87	88
96	4	87	89
97	5	89	90
98	4	89	91
99	6	91	92
100	4	91	94
101	12	92	93
102	6	92	178
103	5	94	95
104	1	96	97
105	2	96	177
106	4	97	98
107	4	97	175
108	5	98	99
109	4	98	100
110	5	100	101
111	4	100	102
112	6	102	103
113	4	102	173
114	4	103	104
115	4	103	171
116	5	104	105
117	4	104	106
118	5	106	107
119	4	106	108
120	7	108	109
121	4	108	166
122	7	109	110
123	4	110	111
124	4	110	164
125	5	111	112
126	4	111	113
127	5	113	114
128	4	113	115
129	8	115	116
130	4	115	162
131	8	116	117
132	9	116	154
133	9	116	158
134	4	117	118
135	4	117	152
136	5	118	119
137	4	118	120
138	5	120	121
139	4	120	122
140	7	122	123
141	4	122	150
142	7	123	124
143	4	124	125
144	4	124	145
145	5	125	126
146	4	125	127
147	5	127	128
148	4	127	129
149	6	129	130
150	4	129	143
151	4	130	131
152	4	130	141
153	5	131	132
154	4	131	133
155	5	133	134
156	4	133	135
157	1	135	136
158	4	135	139
159	2	136	137
160	2	136	138
161	5	139	140
162	4	139	141
163	5	141	142
164	5	143	144
165	4	143	145
166	8	145	146
167	11	146	147
168	11	146	148
169	11	146	149
170	5	150	151
171	4	150	152
172	5	152	153
173	11	154	155
174	11	154	156
175	11	154	157
176	11	158	159
177	11	158	160
178	11	158	161
179	5	162	163
180	4	162	164
181	5	164	165
182	8	166	167
183	4	166	171
184	11	167	168
185	11	167	169
186	11	167	170
187	5	171	172
188	5	173	174
189	4	173	175
190	5	175	176
191	12	178	179
192	6	178	180
193	4	180	181
194	4	180	192
195	5	181	182
196	4	181	183
197	5	183	184
198	4	183	185
199	5	185	186
200	4	185	187
201	6	187	188
202	4	187	192
203	12	188	189
204	13	188	190
205	14	190	191
206	5	192	193

Angles

1	1	97	175	173
2	1	91	92	178
3	1	11	13	70
4	4	110	164	165
5	1	22	23	25
6	4	126	125	127
7	1	16	18	20
8	3	81	1	96
9	4	132	131	133
10	1	5	7	77
11	1	28	29	30
12	1	47	49	50
13	4	140	139	141
14	1	40	43	45
15	1	25	27	28
16	1	35	45	43
17	6	73	71	74
18	6	160	158	161
19	1	185	187	188
20	4	180	192	193
21	6	64	62	65
22	1	143	145	146
23	4	3	5	6
24	4	34	47	48
25	4	99	98	100
26	4	163	162	164
27	1	14	13	70
28	1	92	178	180
29	7	189	188	190
30	4	8	9	10
31	4	117	118	119
32	6	166	167	169
33	5	188	190	191
34	1	91	92	93
35	1	21	20	66
36	6	70	71	74
37	6	116	158	160
38	1	34	35	45
39	6	117	116	154
40	1	115	162	164
41	4	107	106	108
42	1	110	164	162
43	4	135	139	140
44	4	12	11	13
45	1	38	40	41
46	1	84	94	91
47	1	23	25	27
48	6	49	50	52
49	6	115	116	154
50	1	125	124	145
51	1	28	27	54
52	4	139	141	142
53	6	147	146	149
54	1	179	178	180
55	5	108	109	110
56	1	116	117	152
57	1	83	82	84
58	1	111	110	164
59	1	124	145	146
60	4	16	18	19
61	4	162	164	165
62	1	30	32	34
63	1	25	27	54
64	1	183	185	187
65	3	135	136	137
66	6	115	116	158
67	1	98	97	175
68	1	32	34	35
69	4	102	173	174
70	4	118	120	121
71	4	84	85	86
72	4	86	85	87
73	1	92	178	179
74	6	148	146	149
75	1	36	38	40
76	1	7	8	75
77	1	113	115	162
78	4	35	45	46
79	1	28	29	49
80	1	41	40	43
81	1	116	117	118
82	1	130	131	133
83	1	102	103	171
84	1	89	91	94
85	6	166	167	168
86	1	18	20	21
87	6	116	158	159
88	4	115	162	163
89	4	121	120	122
90	1	102	103	104
91	1	87	89	91
92	6	49	50	51
93	6	63	62	64
94	6	147	146	148
95	4	173	175	176
96	1	13	70	71
97	1	27	54	56
98	1	22	56	54
99	4	24	23	25
100	6	168	167	170
101	2	40	41	82
102	6	115	116	117
103	1	97	98	100
104	1	180	181	183
105	4	30	32	33
106	3	40	41	42
107	1	129	130	131
108	4	98	100	101
109	4	183	185	186
110	1	82	84	85
111	1	13	70	75
112	1	131	133	135
113	1	41	82	83
114	6	22	21	58
115	3	137	136	138
116	1	8	7	77
117	6	116	154	155
118	1	35	36	38
119	1	167	166	171
120	4	36	38	39
121	1	35	34	47
122	6	159	158	161
123	4	130	131	132
124	6	20	21	22
125	4	101	100	102
126	4	90	89	91
127	4	85	87	88
128	4	166	171	172
129	4	37	36	38
130	1	187	188	190
131	6	22	21	62
132	1	110	111	113
133	2	1	96	97
134	4	78	77	79
135	1	14	15	68
136	1	124	125	127
137	4	2	79	80
138	6	20	21	62
139	1	181	183	185
140	1	109	110	111
141	1	9	11	13
142	1	108	166	171
143	6	168	167	169
144	1	109	108	166
145	4	22	23	24
146	4	67	66	68
147	4	134	133	135
148	4	97	98	99
149	1	129	130	141
150	6	145	146	149
151	5	122	123	124
152	1	123	122	150
153	4	40	43	44
154	4	114	113	115
155	4	4	3	5
156	4	184	183	185
157	1	129	143	145
158	1	15	16	18
159	6	21	58	61
160	1	21	22	23
161	1	23	22	56
162	4	22	56	57
163	1	89	91	92
164	4	6	5	7
165	3	42	41	82
166	4	10	9	11
167	4	17	16	18
168	1	111	113	115
169	6	159	158	160
170	1	2	79	77
171	1	133	135	139
172	1	38	40	43
173	4	55	54	56
174	4	31	30	32
175	4	39	38	40
176	1	96	97	98
177	5	27	28	29
178	1	116	115	162
179	1	187	188	189
180	1	3	5	7
181	1	34	47	49
182	6	70	71	73
183	1	7	77	79
184	4	110	111	112
185	4	88	87	89
186	1	181	180	192
187	1	8	75	70
188	4	23	25	26
189	1	178	180	192
190	1	9	8	75
191	1	120	122	150
192	1	117	118	120
193	4	44	43	45
194	1	106	108	109
195	1	136	135	139
196	6	155	154	157
197	6	166	167	170
198	1	123	124	125
199	5	13	14	15
200	6	51	50	53
201	4	9	11	12
202	1	120	122	123
203	6	116	158	161
204	1	103	171	166
205	1	92	91	94
206	4	117	152	153
207	4	91	94	95
208	1	135	139	141
209	6	145	146	148
210	1	1	2	3
211	1	8	9	11
212	1	103	104	106
213	4	66	68	69
214	1	133	135	136
215	6	21	62	65
216	6	21	58	60
217	6	154	116	158
218	4	174	173	175
219	1	20	66	68
220	1	15	68	66
221	1	96	97	175
222	1	11	13	14
223	6	59	58	61
224	1	5	7	8
225	4	111	113	114
226	4	8	75	76
227	1	82	84	94
228	6	52	50	53
229	1	93	92	178
230	2	2	1	96
231	6	20	21	58
232	3	135	136	138
233	1	130	129	143
234	1	104	106	108
235	1	34	35	36
236	6	72	71	74
237	4	48	47	49
238	4	112	111	113
239	1	29	49	50
240	4	182	181	183
241	1	102	173	175
242	1	118	120	122
243	4	26	25	27
244	6	70	71	72
245	6	116	154	157
246	1	108	166	167
247	1	84	85	87
248	4	7	77	78
249	4	103	171	172
250	1	16	15	68
251	1	106	108	166
252	1	122	150	152
253	1	117	152	150
254	3	1	96	177
255	4	87	89	90
256	1	85	84	94
257	1	36	35	45
258	1	100	102	103
259	3	97	96	177
260	4	128	127	129
261	1	185	187	192
262	6	155	154	156
263	4	150	152	153
264	4	187	192	193
265	1	32	34	47
266	6	51	50	52
267	4	77	79	80
268	4	27	54	55
269	1	113	115	116
270	1	2	3	5
271	1	131	130	141
272	4	144	143	145
273	4	180	181	182
274	1	127	129	130
275	4	130	141	142
276	6	145	146	147
277	4	151	150	152
278	1	7	8	9
279	4	103	104	105
280	1	103	102	173
281	6	63	62	65
282	6	21	62	64
283	6	21	58	59
284	1	125	127	129
285	1	29	30	32
286	4	20	66	67
287	4	131	133	134
288	1	29	49	47
289	6	117	116	158
290	6	58	21	62
291	4	35	36	37
292	6	156	154	157
293	1	127	129	143
294	1	109	110	164
295	1	14	15	16
296	1	30	29	49
297	6	59	58	60
298	1	71	70	75
299	1	98	100	102
300	1	118	117	152
301	4	104	106	107
302	1	18	20	66
303	6	72	71	73
304	4	15	68	69
305	1	41	82	84
306	6	169	167	170
307	4	70	75	76
308	4	97	175	176
309	4	19	18	20
310	1	104	103	171
311	6	116	154	156
312	1	188	187	192
313	4	122	150	151
314	4	43	45	46
315	4	84	94	95
316	4	105	104	106
317	4	33	32	34
318	1	130	141	139
319	4	124	125	126
320	1	124	145	143
321	4	54	56	57
322	4	119	118	120
323	4	186	185	187
324	1	178	180	181
325	4	181	183	184
326	6	60	58	61
327	1	85	87	89
328	1	100	102	173
329	1	21	22	56
330	3	2	1	81
331	1	180	192	187
332	1	1	2	79
333	4	2	3	4
334	6	49	50	53
335	1	123	124	145
336	4	129	143	144
337	4	15	16	17
338	6	21	62	63
339	4	125	127	128
340	1	3	2	79
341	4	29	30	31

Dihedrals

1	1	34	35	36	37
2	1	11	13	70	75
3	1	15	16	18	20
4	1	1	2	3	5
5	1	123	124	145	143
6	12	41	82	84	85
7	1	13	70	75	76
8	1	8	75	70	13
9	1	105	104	106	108
10	1	12	11	13	14
11	6	152	117	116	158
12	6	47	49	50	51
13	1	27	54	56	57
14	1	6	5	7	77
15	1	88	87	89	91
16	1	106	108	166	167
17	6	72	71	70	75
18	6	23	22	21	62
19	1	128	127	129	130
20	12	190	188	187	192
21	6	29	49	50	51
22	6	113	115	116	117
23	1	180	192	187	188
24	1	100	102	173	174
25	4	5	7	8	75
26	1	19	18	20	21
27	1	17	16	18	19
28	1	41	40	43	44
29	2	137	136	135	139
30	1	35	34	47	49
31	1	112	111	110	164
32	1	113	115	162	163
33	12	91	92	178	179
34	7	22	21	58	61
35	1	34	35	45	46
36	1	100	98	97	175
37	1	101	100	102	173
38	7	117	116	158	160
39	1	133	135	139	141
40	1	111	113	115	116
41	1	15	68	66	67
42	1	178	180	181	182
43	1	106	108	166	171
44	1	128	127	129	143
45	1	104	103	171	172
46	2	1	96	97	175
47	1	7	8	9	11
48	1	9	8	75	70
49	3	2	1	96	97
50	1	7	8	75	70
51	1	117	118	120	122
52	1	29	49	47	48
53	1	82	84	85	86
54	1	116	115	162	163
55	1	39	38	40	41
56	5	108	109	110	111
57	1	82	84	94	95
58	1	133	131	130	141
59	1	136	135	139	141
60	5	110	109	108	166
61	1	110	164	162	115
62	1	120	118	117	152
63	7	20	21	62	65
64	1	32	30	29	49
65	1	23	22	56	54
66	7	20	21	58	60
67	1	121	120	122	150
68	1	103	171	166	167
69	1	108	166	171	172
70	1	5	3	2	79
71	1	4	3	5	7
72	1	25	27	54	55
73	1	87	89	91	94
74	1	97	98	100	101
75	6	124	145	146	147
76	1	29	49	47	34
77	1	121	120	122	123
78	2	43	40	41	82
79	4	100	102	103	171
80	7	58	21	62	65
81	12	94	91	92	178
82	1	120	122	150	151
83	1	107	106	108	109
84	1	48	47	49	50
85	1	15	16	18	19
86	2	79	2	1	96
87	1	98	100	102	173
88	5	15	14	13	70
89	1	109	110	164	162
90	6	13	70	71	74
91	1	84	85	87	89
92	1	25	23	22	56
93	1	28	29	49	50
94	1	105	104	106	107
95	1	34	35	45	43
96	6	113	115	116	154
97	1	134	133	135	139
98	1	114	113	115	116
99	2	3	2	1	81
100	4	100	102	103	104
101	5	108	109	110	164
102	1	117	152	150	151
103	1	9	8	75	76
104	1	180	181	183	184
105	1	122	150	152	153
106	1	7	8	75	76
107	1	129	130	131	132
108	2	133	135	136	138
109	1	3	5	7	77
110	1	105	104	103	171
111	12	83	82	84	94
112	1	129	143	145	146
113	1	118	120	122	150
114	1	178	180	192	187
115	10	42	41	82	84
115	11	42	41	82	84
116	1	103	104	106	108
117	1	113	111	110	164
118	1	28	27	54	55
119	6	115	116	117	118
120	7	22	21	58	60
121	1	10	9	11	13
122	7	115	116	154	155
123	1	2	3	5	7
124	1	92	91	94	95
125	1	125	124	145	143
126	7	157	154	116	158
127	6	168	167	166	171
128	6	143	145	146	147
129	6	56	22	21	58
130	1	85	87	89	91
131	1	123	124	145	146
132	1	110	111	113	115
133	1	127	129	143	145
134	6	18	20	21	22
135	1	104	106	108	109
136	1	23	25	27	54
137	1	11	13	70	71
138	1	40	43	45	46
139	1	136	135	139	140
140	1	135	139	141	142
141	7	20	21	62	64
142	1	107	106	108	166
143	7	22	21	62	65
144	7	20	21	58	59
145	1	28	29	49	47
146	1	14	15	16	18
147	6	152	117	116	154
148	1	36	35	45	43
149	1	30	32	34	35
150	1	134	133	135	136
151	4	104	103	102	173
152	2	175	97	96	177
153	1	33	32	34	47
154	1	37	36	38	39
155	1	16	18	20	21
156	5	25	27	28	29
157	6	23	22	21	58
158	6	169	167	166	171
159	1	17	16	15	68
160	3	81	1	96	177
161	7	117	116	154	156
162	6	18	20	21	62
163	16	189	188	190	191
163	17	189	188	190	191
164	1	35	36	38	40
165	12	179	178	180	192
166	6	62	21	20	66
167	12	179	178	180	181
168	1	96	97	98	100
169	1	8	7	77	78
170	1	12	11	13	70
171	5	13	14	15	16
172	1	103	102	173	175
173	1	5	7	77	79
174	1	23	22	56	57
175	1	38	40	43	45
176	1	82	84	94	91
177	6	108	166	167	170
178	7	61	58	21	62
179	12	185	187	188	190
180	1	28	29	30	32
181	7	154	116	158	160
182	1	11	9	8	75
183	1	89	91	94	95
184	1	37	36	35	45
185	1	14	15	68	69
186	6	170	167	166	171
187	1	10	9	8	75
188	6	158	116	115	162
189	2	133	135	136	137
190	1	186	185	187	188
191	1	131	133	135	139
192	1	26	25	27	28
193	1	86	85	84	94
194	12	41	82	84	94
195	1	97	175	173	174
196	12	93	92	178	179
197	1	109	110	164	165
198	1	103	104	106	107
199	1	181	183	185	187
200	1	21	22	23	25
201	1	36	38	40	41
202	1	132	131	130	141
203	1	124	125	127	128
204	2	79	2	1	81
205	6	47	49	50	53
206	1	104	106	108	166
207	6	20	21	22	56
208	1	2	3	5	6
209	1	129	130	141	139
210	1	22	56	54	55
211	1	186	185	187	192
212	6	29	49	50	53
213	1	109	110	111	113
214	1	110	111	113	114
215	1	118	117	152	150
216	1	127	129	143	144
217	3	2	1	96	177
218	1	8	9	11	13
219	1	116	117	152	153
220	1	3	2	79	77
221	1	132	131	133	134
222	5	120	122	123	124
223	1	99	98	100	102
224	1	123	122	150	152
225	7	20	21	62	63
226	7	22	21	62	64
227	1	22	23	25	26
228	4	171	103	102	173
229	7	115	116	158	159
230	1	116	117	118	120
231	1	106	104	103	171
232	1	14	15	68	66
233	1	131	133	135	136
234	1	86	85	87	89
235	6	115	116	117	152
236	1	21	20	66	68
237	7	117	116	154	155
238	1	35	36	38	39
239	1	123	124	125	127
240	1	14	13	70	75
241	1	1	2	3	4
242	5	124	123	122	150
243	1	188	187	192	193
244	12	93	92	91	94
245	1	96	97	98	99
246	1	5	7	77	78
247	1	38	40	43	44
248	1	85	84	94	91
249	1	84	94	91	92
250	1	36	35	45	46
251	1	183	181	180	192
252	1	125	124	145	146
253	7	60	58	21	62
254	1	182	181	180	192
255	1	140	139	141	142
256	1	88	87	89	90
257	12	185	187	188	189
258	1	109	108	166	171
259	1	174	173	175	176
260	6	124	145	146	149
261	7	154	116	158	159
262	1	34	47	49	50
263	1	97	175	173	102
264	10	40	41	82	84
264	11	40	41	82	84
265	1	26	25	27	54
266	1	34	35	36	38
267	1	111	113	115	162
268	1	116	117	152	150
269	4	75	8	7	77
270	4	141	130	129	143
271	1	35	34	47	48
272	1	39	38	40	43
273	12	83	82	84	85
274	1	181	183	185	186
275	1	21	22	23	24
276	1	24	23	25	27
277	1	130	141	139	140
278	1	90	89	91	92
279	12	92	178	180	192
280	1	31	30	32	34
281	1	133	135	139	140
282	1	38	36	35	45
283	7	117	116	158	159
284	1	102	103	171	166
285	1	22	56	54	27
286	1	117	118	120	121
287	4	32	34	35	36
288	1	102	103	104	106
289	6	18	20	21	58
290	1	17	16	18	20
291	5	13	14	15	68
292	1	9	11	13	70
293	1	85	84	94	95
294	5	11	13	14	15
295	1	99	98	100	101
296	1	123	122	150	151
297	1	182	181	183	185
298	7	22	21	62	63
299	7	155	154	116	158
300	1	84	94	91	89
301	1	4	3	5	6
302	7	115	116	154	157
303	1	129	130	141	142
304	1	4	3	2	79
305	1	18	20	66	68
306	6	143	145	146	149
307	1	7	77	79	80
308	1	18	16	15	68
309	2	42	41	40	43
310	2	38	40	41	82
311	7	58	21	62	64
312	1	118	117	152	153
313	1	114	113	115	162
314	1	116	115	162	164
315	1	103	171	166	108
316	1	3	2	79	80
317	5	27	28	29	30
318	6	118	117	116	158
319	2	3	2	1	96
320	2	38	40	41	42
321	1	178	180	192	193
322	1	2	79	77	78
323	1	130	131	133	135
324	6	13	70	71	73
325	1	84	85	87	88
326	7	20	21	58	61
327	4	36	35	34	47
328	1	25	27	54	56
329	1	35	45	43	44
330	1	185	187	192	193
331	1	102	103	171	172
332	1	104	103	171	166
333	6	124	145	146	148
334	6	117	116	115	162
335	1	144	143	145	146
336	1	119	118	120	122
337	8	40	41	82	83
337	9	40	41	82	83
338	5	29	28	27	54
339	1	98	100	102	103
340	1	120	122	150	152
341	1	19	18	20	66
342	1	21	22	56	54
343	1	126	125	127	129
344	1	8	75	70	71
345	6	74	71	70	75
346	13	42	41	82	83
346	14	42	41	82	83
347	1	98	97	175	173
348	1	87	85	84	94
349	1	24	23	25	26
350	4	127	129	130	131
351	7	22	21	58	59
352	1	10	9	11	12
353	1	33	32	34	35
354	1	31	30	32	33
355	12	89	91	92	178
356	1	6	5	7	8
357	1	29	30	32	34
358	6	73	71	70	75
359	1	180	181	183	185
360	1	16	15	68	66
361	1	127	125	124	145
362	1	129	130	131	133
363	1	87	89	91	92
364	1	85	87	89	90
365	12	189	188	187	192
366	1	102	103	104	105
367	1	163	162	164	165
368	1	14	13	70	71
369	1	111	110	164	162
370	1	182	181	183	184
371	1	28	27	54	56
372	1	124	145	143	144
373	1	14	15	16	17
374	1	99	98	97	175
375	7	115	116	154	156
376	1	20	66	68	69
377	1	109	108	166	167
378	1	15	68	66	20
379	5	106	108	109	110
380	1	18	20	66	67
381	6	143	145	146	148
382	1	1	2	79	77
383	4	131	130	129	143
384	7	58	21	62	63
385	1	130	129	143	145
386	1	184	183	185	187
387	1	102	173	175	176
388	1	23	25	27	28
389	4	9	8	7	77
390	1	130	131	133	134
391	1	103	102	173	174
392	6	13	70	71	72
393	1	24	23	22	56
394	1	71	70	75	76
395	12	89	91	92	93
396	1	32	34	47	49
397	6	108	166	167	169
398	7	115	116	158	161
399	1	36	38	40	43
400	4	45	35	34	47
401	5	122	123	124	125
402	1	28	29	30	31
403	1	37	36	38	40
404	1	7	8	9	10
405	1	119	118	120	121
406	1	67	66	68	69
407	1	112	111	113	115
408	1	78	77	79	80
409	7	117	116	154	157
410	1	180	192	187	185
411	1	117	152	150	122
412	1	181	180	192	187
413	1	126	125	127	128
414	1	8	7	77	79
415	5	27	28	29	49
416	5	122	123	124	145
417	1	35	45	43	40
418	4	127	129	130	141
419	2	98	97	96	177
420	6	47	49	50	52
421	1	131	130	141	142
422	12	92	178	180	181
423	1	29	30	32	33
424	1	30	32	34	47
425	1	119	118	117	152
426	1	30	29	49	50
427	7	154	116	158	161
428	6	29	49	50	52
429	1	109	110	111	112
430	1	100	102	173	175
431	1	96	97	175	176
432	15	187	188	190	191
433	1	3	5	7	8
434	1	8	9	11	12
435	1	21	22	56	57
436	1	41	40	43	45
437	1	55	54	56	57
438	6	118	117	116	154
439	1	101	100	102	103
440	12	93	92	178	180
441	1	98	97	175	176
442	1	113	115	162	164
443	12	91	92	178	180
444	1	124	125	127	129
445	6	113	115	116	158
446	1	118	120	122	123
447	7	117	116	158	161
448	7	59	58	21	62
449	1	116	117	118	119
450	1	178	180	181	183
451	1	16	18	20	66
452	1	16	15	68	69
453	1	110	164	162	163
454	7	156	154	116	158
455	1	167	166	171	172
456	1	115	162	164	165
457	1	125	127	129	130
458	1	183	185	187	188
459	6	154	116	115	162
460	1	86	85	87	88
461	1	82	84	85	87
462	1	21	20	66	67
463	1	130	129	143	144
464	1	184	183	185	186
465	1	181	180	192	193
466	4	5	7	8	9
467	1	123	124	125	126
468	1	126	125	124	145
469	4	32	34	35	45
470	1	132	131	133	135
471	1	90	89	91	94
472	1	111	110	164	165
473	1	151	150	152	153
474	1	9	11	13	14
475	1	2	79	77	7
476	1	32	34	47	48
477	2	1	96	97	98
478	1	22	23	25	27
479	1	130	141	139	135
480	1	44	43	45	46
481	6	108	166	167	168
482	7	115	116	158	160
483	1	131	130	141	139
484	6	20	21	22	23
485	1	31	30	29	49
486	6	58	21	20	66
487	1	97	98	100	102
488	3	81	1	96	97
489	6	22	21	20	66
490	1	125	127	129	143
491	1	30	29	49	47
492	1	124	145	143	129
493	2	138	136	135	139
494	6	56	22	21	62
495	1	1	2	79	80
496	1	183	185	187	192
497	1	112	111	113	114
498	1	96	97	175	173

Impropers

3	1	54	56	27	55
5	3	188	187	189	190
6	1	16	17	18	15
7	1	117	116	118	152
8	1	145	143	146	124
11	1	187	188	192	185
12	1	79	2	77	80
13	1	130	141	129	131
14	1	104	106	103	105
16	1	9	10	11	8
17	1	70	13	71	75
19	1	27	28	54	25
20	1	22	23	56	21
21	1	36	38	35	37
22	1	181	182	183	180
26	1	45	35	43	46
27	1	110	164	109	111
35	1	127	125	128	129
40	1	150	152	122	151
41	1	20	18	21	66
42	1	185	183	186	187
43	1	13	11	14	70
44	1	108	106	109	166
51	1	11	9	12	13
54	1	97	96	98	175
55	1	3	2	4	5
57	1	120	118	121	122
65	1	5	6	7	3
67	1	89	91	87	90
69	1	118	119	120	117
70	1	185	186	187	183
73	1	29	49	28	30
80	2	96	177	1	97
82	1	38	36	39	40
83	1	103	171	102	104
86	1	77	79	7	78
87	1	125	126	127	124
88	1	152	153	117	150
89	1	100	102	98	101
94	1	32	34	30	33
96	1	43	40	44	45
97	1	22	21	23	56
100	1	139	135	140	141
105	1	145	124	143	146
108	1	32	33	34	30
109	1	187	192	185	188
119	1	180	192	178	181
129	1	125	124	126	127
135	2	1	81	96	2
137	1	103	102	104	171
138	1	145	146	124	143
144	1	166	108	167	171
145	1	84	85	94	82
146	1	8	7	9	75
150	1	85	87	84	86
155	1	113	111	114	115
157	1	18	20	16	19
168	1	85	86	87	84
172	1	125	127	124	126
173	1	34	35	47	32
175	1	23	22	24	25
176	2	96	97	177	1
177	1	185	187	183	186
179	1	92	93	178	91
181	1	183	185	181	184
182	1	129	127	130	143
190	1	180	178	181	192
191	1	49	50	29	47
193	1	36	37	38	35
196	1	5	7	3	6
202	1	7	77	5	8
204	1	127	129	125	128
209	1	124	125	145	123
211	1	13	70	11	14
214	1	111	112	113	110