Title

171 atoms
170 bonds
329 angles
585 dihedrals
12 impropers

8 atom types
11 bond types
5 angle types
27 dihedral types
2 improper types
-19.23900032 80.76099968 xlo xhi
-5.084000111 94.91599989 ylo yhi
-3.451999903 96.5480001 zlo zhi
0.0 0.0 0.0 xy xz yz

Masses

1	15.99943
2	12.01078
3	1.007947
4	1.007947
5	12.01078
6	15.99943
7	15.99943
8	1.007947


Pair Coeffs

1	0.16846514	3.0251065
2	0.10884061	3.3795318
3	0.016409246	2.5832257
4	0.015779483	2.6445434
5	0.086879315	3.4806469
6	0.2102061	3.0398122
7	0.20947353	2.99716
8	1.2326e-05	0.53453923

Bond Coeffs

1 harmonic	366.7408841747	1.425895053732
2 harmonic	300.03137914615	1.451203938761
3 harmonic	264.62148576755	1.52190126495
4 harmonic	370.04670688625	1.093899492634
5 harmonic	301.15400723785	1.345741232799
6 harmonic	582.698766451	1.225198386222
7 harmonic	329.44145381095	1.523435958334
8 harmonic	279.1350963404	1.454628925034
9 harmonic	329.96998057905	1.427343958716
10 harmonic	543.5267831885	0.9716763312559
11 harmonic	385.7604595587	1.369745182308


Angle Coeffs

1 harmonic	53.20531626545	116.5475862634
2 harmonic	65.09061609600001	110.3538806181
3 harmonic	201.41175231035	127.4691416191
4 harmonic	57.8982893754	126.8062420451
5 harmonic	48.776492647595	115.6030999533


Dihedral Coeffs

1 fourier 1	0.1155372516788	3	0
2 fourier 1	0.1115525666802	3	0
3 fourier 1	0.3432490222662	1	0
4 fourier 1	0.0473758381877	3	0
5 fourier 1	0.457973137376	1	0
6 fourier 1	0.09223874044423	3	0
7 fourier 1	0.3159935921949	2	180
8 fourier 1	0.3247796806857	1	180
9 fourier 1	0.1040663847541	3	0
10 fourier 1	0.1918272375143	3	0
11 fourier 1	0.9202179876409	1	180
12 fourier 1	1.163809172478	2	180
13 fourier 1	0.1679186987369	1	180
14 fourier 1	2.779853741805	2	180
15 fourier 1	0.02664938770063	3	0
16 fourier 1	0.1911926717192	3	0
17 fourier 1	-0.3703352413219	2	0
18 fourier 1	0.4541676554336	1	0
19 fourier 1	0.1489710476446	2	0
20 fourier 1	0.02960027280666	3	180
21 fourier 1	0.9974165607242	2	180
22 fourier 1	0.3445382149273	3	0
23 fourier 1	0.1364556373303	1	0
24 fourier 1	0.3026390167484	3	0
25 fourier 1	2.687457892086	2	180
26 fourier 1	2.772607909663	2	180
27 fourier 1	0.09692684957115	1	0


Improper Coeffs

1 3.5	-1	2
2 0.3666666666666667	-1	2


Atoms

1	1	1	-0.18677101	-3.987	2.6689999	0.88
2	1	2	0.031288002	-4.0469999	1.324	0.491
3	1	2	-0.148442	-2.6389999	0.72299999	0.44499999
4	1	2	-0.142078	-2.684	-0.75800002	0.041000001
5	1	2	-0.14444	-1.3049999	-1.431	0.112
6	1	2	-0.14315701	-0.34799999	-0.93300003	-0.98500001
7	1	2	-0.14315701	0.94199997	-1.768	-1.074
8	1	2	-0.14449	1.801	-1.779	0.207
9	1	2	-0.143343	2.217	-0.38999999	0.72399998
10	1	2	-0.142281	3.069	0.39199999	-0.289
11	1	2	0.13318101	3.6340001	1.681	0.315
12	1	1	-0.49735799	2.6040001	2.5910001	0.59600002
13	1	3	0.073875003	4.2350001	1.456	1.227
14	1	3	0.073875003	4.3189998	2.1470001	-0.42399999
15	1	4	0.081938997	2.4590001	0.65499997	-1.179
16	1	4	0.081938997	3.918	-0.242	-0.62400001
17	1	4	0.078290001	2.8110001	-0.54000002	1.652
18	1	4	0.078290001	1.318	0.197	1.006
19	1	4	0.076604001	1.253	-2.3099999	1.013
20	1	4	0.076604001	2.7179999	-2.375	0.0080000004
21	1	4	0.076604001	1.552	-1.3940001	-1.923
22	1	4	0.076604001	0.67199999	-2.8180001	-1.322
23	1	4	0.076604001	-0.861	-1	-1.969
24	1	4	0.076604001	-0.092	0.134	-0.82300001
25	1	4	0.076604001	-1.449	-2.527	-0.0070000002
26	1	4	0.076604001	-0.86299998	-1.2539999	1.1160001
27	1	4	0.078459002	-3.1010001	-0.85900003	-0.98500001
28	1	4	0.078459002	-3.365	-1.3	0.73500001
29	1	4	0.082888	-2.033	1.295	-0.28799999
30	1	4	0.082888	-2.1700001	0.824	1.448
31	1	3	0.073385	-4.6620002	0.77100003	1.233
32	1	3	0.073385	-4.54	1.2309999	-0.50300002
33	1	5	0.75869501	2.289	2.4000001	1.567
34	1	6	-0.57064903	1.643	1.391	1.804
35	1	2	-0.210392	2.6440001	3.3540001	2.6700001
36	1	2	-0.117051	1.401	4.0089998	3.2869999
37	1	2	-0.13771699	0.69499999	4.954	2.303
38	1	2	-0.14305601	-0.514	5.631	2.961
39	1	2	-0.14315701	-1.229	6.5619998	1.97
40	1	2	-0.14315701	-2.3610001	7.3699999	2.625
41	1	2	-0.14315701	-3.5829999	6.5009999	2.971
42	1	2	-0.14315701	-4.743	7.3239999	3.5550001
43	1	2	-0.14315701	-5.5500002	8.0579996	2.47
44	1	2	-0.14315701	-6.6269999	8.9919996	3.053
45	1	2	-0.14315701	-7.71	8.2980003	3.898
46	1	2	-0.14315701	-8.5249996	7.2670002	3.098
47	1	2	-0.14305601	-9.6859999	6.665	3.908
48	1	2	-0.140366	-10.837	7.6420002	4.2220001
49	1	2	-0.098674998	-11.571	8.1660004	2.967
50	1	2	-0.25923899	-11.177	9.6040001	2.592
51	1	5	0.51438898	-11.696	10.61	3.579
52	1	6	-0.71036398	-11.46	11.796	3.4189999
53	1	4	0.110322	-11.605	9.8400002	1.594
54	1	4	0.110322	-10.074	9.6999998	2.5179999
55	1	4	0.073100999	-11.379	7.4990001	2.098
56	1	4	0.073100999	-12.669	8.1339998	3.1440001
57	1	4	0.074739002	-11.575	7.0830002	4.8390002
58	1	4	0.074739002	-10.479	8.4720001	4.8649998
59	1	4	0.076604001	-10.099	5.8000002	3.3440001
60	1	4	0.076604001	-9.2889996	6.2620001	4.8649998
61	1	4	0.076604001	-8.901	7.7129998	2.154
62	1	4	0.076604001	-7.8559999	6.4260001	2.8169999
63	1	4	0.076604001	-7.256	7.8150001	4.789
64	1	4	0.076604001	-8.3850002	9.0939999	4.2740002
65	1	4	0.076604001	-6.1290002	9.7629995	3.6800001
66	1	4	0.076604001	-7.1199999	9.5290003	2.2130001
67	1	4	0.076604001	-6.0120001	7.323	1.777
68	1	4	0.076604001	-4.868	8.6859999	1.862
69	1	4	0.076604001	-5.4180002	6.619	4.086
70	1	4	0.076604001	-4.355	8.0500002	4.3039999
71	1	4	0.076604001	-3.2869999	5.7509999	3.734
72	1	4	0.076604001	-3.9289999	5.947	2.0699999
73	1	4	0.076604001	-2.661	8.1630001	1.909
74	1	4	0.076604001	-1.982	7.8730001	3.5420001
75	1	4	0.076604001	-1.631	5.9720001	1.118
76	1	4	0.076604001	-0.48800001	7.283	1.5599999
77	1	4	0.076604001	-1.217	4.8449998	3.3110001
78	1	4	0.076604001	-0.171	6.2179999	3.8410001
79	1	4	0.074739002	0.35100001	4.3779998	1.416
80	1	4	0.074739002	1.413	5.7319999	1.962
81	1	4	0.081809998	0.69400001	3.2219999	3.632
82	1	4	0.081809998	1.722	4.5900002	4.1799998
83	1	4	0.113136	3.1919999	2.7969999	3.46
84	1	4	0.113136	3.325	4.138	2.276
85	1	1	-0.18677101	-3.677	3.1800001	0.088
86	1	2	0.031288002	-3.9849999	4.526	0.333
87	1	2	-0.148442	-2.9820001	5.1259999	1.322
88	1	2	-0.142078	-3.289	6.6079998	1.5880001
89	1	2	-0.14444	-2.2279999	7.2800002	2.4719999
90	1	2	-0.14315701	-2.27	6.7820001	3.927
91	1	2	-0.14315701	-1.383	7.6170001	4.868
92	1	2	-0.14444	0.118	7.6279998	4.5100002
93	1	2	-0.13799401	0.77399999	6.2389998	4.4130001
94	1	2	-0.17036501	0.71200001	5.4569998	5.7350001
95	1	2	0.084386997	1.5369999	4.1680002	5.6750002
96	1	7	-0.687778	0.97100002	3.2579999	4.77
97	1	8	0.37320301	1.38	3.441	3.8840001
98	1	3	0.063074	2.5969999	4.3930001	5.4120002
99	1	3	0.063074	1.539	3.7019999	6.6830001
100	1	4	0.085239999	-0.34	5.1939998	5.974
101	1	4	0.085239999	1.109	6.092	6.5570002
102	1	4	0.078459002	1.84	6.3889999	4.1339998
103	1	4	0.078459002	0.30500001	5.652	3.596
104	1	4	0.076604001	0.26199999	8.1590004	3.5450001
105	1	4	0.076604001	0.65600002	8.224	5.2789998
106	1	4	0.076604001	-1.511	7.244	5.9060001
107	1	4	0.076604001	-1.749	8.6669998	4.8660002
108	1	4	0.076604001	-3.3139999	6.849	4.302
109	1	4	0.076604001	-1.972	5.7150002	3.9820001
110	1	4	0.076604001	-2.415	8.3760004	2.461
111	1	4	0.076604001	-1.222	7.1030002	2.0339999
112	1	4	0.078459002	-4.2919998	6.7080002	2.059
113	1	4	0.078459002	-3.3180001	7.1490002	0.61699998
114	1	4	0.082888	-3.0350001	4.5539999	2.2720001
115	1	4	0.082888	-1.957	5.0250001	0.903
116	1	3	0.073385	-3.934	5.0780001	-0.63
117	1	3	0.073385	-5.0219998	4.618	0.72899997
118	1	5	0.51438898	-12.281	10.297	4.4380002
119	1	6	-0.71036398	-11.851	9.4230003	5.1729999
120	1	2	-0.25923899	-13.606	10.944	4.7150002
121	1	2	-0.098674998	-14.763	9.9379997	4.6690001
122	1	2	-0.140366	-14.972	9.3559999	3.2620001
123	1	2	-0.14305601	-16.171	8.3950005	3.2360001
124	1	2	-0.14315701	-16.499001	7.8860002	1.8200001
125	1	2	-0.14315701	-15.377	7.0739999	1.138
126	1	2	-0.14315701	-14.883	5.848	1.928
127	1	2	-0.14315701	-15.98	4.7839999	2.118
128	1	2	-0.14315701	-15.458	3.527	2.8369999
129	1	2	-0.14315701	-14.635	2.5880001	1.926
130	1	2	-0.14315701	-15.429	1.378	1.405
131	1	2	-0.14315701	-16.533001	1.771	0.40900001
132	1	2	-0.14305601	-17.214001	0.54900002	-0.23
133	1	2	-0.13771699	-16.339001	-0.116	-1.309
134	1	2	-0.11452	-17.098	-1.187	-2.109
135	1	2	-0.220485	-17.400999	-2.4419999	-1.275
136	1	5	0.82047898	-17.99	-3.513	-2.1370001
137	1	6	-0.57286203	-19.239	-3.6210001	-2.247
138	1	7	-0.668957	-17.153	-4.3629999	-2.852
139	1	8	0.38935599	-17.534	-5.0840001	-3.4519999
140	1	4	0.114133	-16.464001	-2.8280001	-0.81699997
141	1	4	0.114133	-18.114	-2.2	-0.45899999
142	1	4	0.081809998	-18.045	-0.76300001	-2.5090001
143	1	4	0.081809998	-16.465	-1.475	-2.977
144	1	4	0.074739002	-15.437	-0.57499999	-0.85000002
145	1	4	0.074739002	-15.994	0.66299999	-2.023
146	1	4	0.076604001	-17.476	-0.184	0.56199998
147	1	4	0.076604001	-18.162001	0.89099997	-0.69999999
148	1	4	0.076604001	-16.121	2.4330001	-0.38499999
149	1	4	0.076604001	-17.313	2.3399999	0.95599997
150	1	4	0.076604001	-14.707	0.69499999	0.91100001
151	1	4	0.076604001	-15.878	0.82499999	2.26
152	1	4	0.076604001	-13.787	2.1900001	2.526
153	1	4	0.076604001	-14.183	3.1329999	1.069
154	1	4	0.076604001	-16.322001	2.9760001	3.27
155	1	4	0.076604001	-14.832	3.8399999	3.701
156	1	4	0.076604001	-16.416	4.5159998	1.1339999
157	1	4	0.076604001	-16.791	5.2119999	2.743
158	1	4	0.076604001	-14.475	6.1609998	2.9130001
159	1	4	0.076604001	-14.036	5.4060001	1.36
160	1	4	0.076604001	-15.748	6.7350001	0.145
161	1	4	0.076604001	-14.513	7.7399998	0.93400002
162	1	4	0.076604001	-16.738001	8.7580004	1.174
163	1	4	0.076604001	-17.423	7.2719998	1.8660001
164	1	4	0.076604001	-15.992	7.54	3.921
165	1	4	0.076604001	-17.068001	8.9300003	3.618
166	1	4	0.074739002	-15.149	10.187	2.5439999
167	1	4	0.074739002	-14.056	8.809	2.957
168	1	4	0.073100999	-15.69	10.463	4.987
169	1	4	0.073100999	-14.572	9.1160002	5.395
170	1	4	0.110322	-13.57	11.413	5.724
171	1	4	0.110322	-13.786	11.752	3.9719999

Bonds

1	1	1	2
2	2	1	85
3	3	2	3
4	4	2	31
5	4	2	32
6	3	3	4
7	4	3	29
8	4	3	30
9	3	4	5
10	4	4	27
11	4	4	28
12	3	5	6
13	4	5	25
14	4	5	26
15	3	6	7
16	4	6	23
17	4	6	24
18	3	7	8
19	4	7	21
20	4	7	22
21	3	8	9
22	4	8	19
23	4	8	20
24	3	9	10
25	4	9	17
26	4	9	18
27	3	10	11
28	4	10	15
29	4	10	16
30	1	11	12
31	4	11	13
32	4	11	14
33	5	12	33
34	6	33	34
35	7	33	35
36	3	35	36
37	4	35	83
38	4	35	84
39	3	36	37
40	4	36	81
41	4	36	82
42	3	37	38
43	4	37	79
44	4	37	80
45	3	38	39
46	4	38	77
47	4	38	78
48	3	39	40
49	4	39	75
50	4	39	76
51	3	40	41
52	4	40	73
53	4	40	74
54	3	41	42
55	4	41	71
56	4	41	72
57	3	42	43
58	4	42	69
59	4	42	70
60	3	43	44
61	4	43	67
62	4	43	68
63	3	44	45
64	4	44	65
65	4	44	66
66	3	45	46
67	4	45	63
68	4	45	64
69	3	46	47
70	4	46	61
71	4	46	62
72	3	47	48
73	4	47	59
74	4	47	60
75	3	48	49
76	4	48	57
77	4	48	58
78	3	49	50
79	4	49	55
80	4	49	56
81	7	50	51
82	4	50	53
83	4	50	54
84	6	51	52
85	8	51	118
86	1	85	86
87	3	86	87
88	4	86	116
89	4	86	117
90	3	87	88
91	4	87	114
92	4	87	115
93	3	88	89
94	4	88	112
95	4	88	113
96	3	89	90
97	4	89	110
98	4	89	111
99	3	90	91
100	4	90	108
101	4	90	109
102	3	91	92
103	4	91	106
104	4	91	107
105	3	92	93
106	4	92	104
107	4	92	105
108	3	93	94
109	4	93	102
110	4	93	103
111	3	94	95
112	4	94	100
113	4	94	101
114	9	95	96
115	4	95	98
116	4	95	99
117	10	96	97
118	6	118	119
119	7	118	120
120	3	120	121
121	4	120	170
122	4	120	171
123	3	121	122
124	4	121	168
125	4	121	169
126	3	122	123
127	4	122	166
128	4	122	167
129	3	123	124
130	4	123	164
131	4	123	165
132	3	124	125
133	4	124	162
134	4	124	163
135	3	125	126
136	4	125	160
137	4	125	161
138	3	126	127
139	4	126	158
140	4	126	159
141	3	127	128
142	4	127	156
143	4	127	157
144	3	128	129
145	4	128	154
146	4	128	155
147	3	129	130
148	4	129	152
149	4	129	153
150	3	130	131
151	4	130	150
152	4	130	151
153	3	131	132
154	4	131	148
155	4	131	149
156	3	132	133
157	4	132	146
158	4	132	147
159	3	133	134
160	4	133	144
161	4	133	145
162	3	134	135
163	4	134	142
164	4	134	143
165	7	135	136
166	4	135	140
167	4	135	141
168	6	136	137
169	11	136	138
170	10	138	139

Angles

1	1	88	89	111
2	3	12	33	34
3	5	79	37	80
4	1	131	132	133
5	5	69	42	70
6	1	136	135	141
7	1	124	123	165
8	1	4	5	6
9	1	44	45	64
10	1	132	131	149
11	1	92	91	107
12	1	125	124	163
13	1	132	133	145
14	1	45	46	62
15	5	108	90	109
16	1	47	48	58
17	4	50	51	52
18	1	131	132	146
19	1	93	94	101
20	1	88	87	115
21	1	134	135	136
22	5	53	50	54
23	1	93	92	105
24	1	128	129	153
25	1	6	7	21
26	2	2	1	85
27	1	89	88	113
28	5	150	130	151
29	1	94	95	96
30	1	49	48	58
31	1	89	90	109
32	1	120	121	169
33	5	160	125	161
34	1	87	88	89
35	5	15	10	16
36	5	98	95	99
37	1	129	128	154
38	1	50	49	56
39	1	121	122	167
40	1	11	10	15
41	1	124	125	160
42	1	120	121	122
43	1	126	125	161
44	1	129	130	150
45	1	4	3	30
46	1	3	4	5
47	1	92	93	102
48	1	9	8	19
49	1	125	126	158
50	1	38	39	40
51	1	7	6	24
52	5	110	89	111
53	1	5	4	28
54	1	45	44	66
55	1	88	89	110
56	1	40	41	72
57	1	7	8	20
58	5	23	6	24
59	1	85	86	87
60	1	88	89	90
61	1	36	37	80
62	1	134	133	144
63	1	128	129	130
64	1	41	42	70
65	1	124	123	164
66	1	44	45	63
67	5	116	86	117
68	1	10	11	13
69	2	1	85	86
70	1	118	120	121
71	1	49	50	53
72	1	87	86	117
73	1	130	129	152
74	5	61	46	62
75	1	135	134	142
76	1	41	42	43
77	1	130	131	148
78	1	125	124	162
79	1	9	10	15
80	1	45	46	61
81	4	135	136	138
82	1	93	94	100
83	1	133	134	143
84	1	91	92	93
85	1	126	127	156
86	1	4	5	25
87	1	86	87	114
88	1	121	122	166
89	1	8	9	18
90	1	124	125	126
91	1	39	38	78
92	5	140	135	141
93	1	49	48	57
94	1	42	43	44
95	1	50	49	55
96	1	91	90	108
97	1	133	132	147
98	1	96	95	98
99	1	126	125	160
100	1	4	3	29
101	5	164	123	165
102	1	94	93	103
103	5	83	35	84
104	1	46	47	60
105	1	127	126	159
106	1	6	7	8
107	1	8	7	22
108	1	122	123	165
109	1	94	95	99
110	1	87	88	112
111	5	29	3	30
112	1	5	4	27
113	1	10	9	18
114	1	95	94	101
115	5	13	11	14
116	1	7	8	19
117	1	90	91	107
118	1	45	46	47
119	1	123	124	163
120	2	95	96	97
121	1	39	40	73
122	1	51	50	54
123	5	17	9	18
124	1	10	11	12
125	1	42	43	68
126	1	46	45	64
127	1	85	86	117
128	1	121	122	123
129	5	73	40	74
130	4	51	118	120
131	5	25	5	26
132	1	132	133	134
133	4	135	136	137
134	1	118	120	171
135	1	133	134	142
136	5	55	49	56
137	1	90	89	111
138	1	9	10	11
139	1	123	124	125
140	1	44	43	68
141	1	48	49	56
142	1	8	9	17
143	1	39	38	77
144	5	152	129	153
145	5	102	93	103
146	1	1	2	3
147	1	44	45	46
148	1	2	3	30
149	1	122	121	169
150	1	12	11	14
151	5	31	2	32
152	1	40	39	76
153	1	35	36	82
154	1	37	38	78
155	4	119	118	120
156	1	121	120	171
157	1	123	122	167
158	1	3	4	28
159	1	47	46	62
160	1	33	35	84
161	1	133	134	135
162	1	131	130	150
163	5	144	133	145
164	1	126	127	128
165	1	128	127	157
166	1	94	93	102
167	1	46	47	59
168	1	127	126	158
169	1	48	47	60
170	1	122	123	164
171	1	94	95	98
172	5	148	131	149
173	5	112	88	113
174	1	127	128	154
175	5	158	126	159
176	1	89	90	91
177	1	95	94	100
178	1	125	126	127
179	1	122	123	124
180	1	12	11	13
181	1	90	91	106
182	1	123	124	162
183	1	3	2	32
184	1	43	42	70
185	1	35	36	37
186	1	136	135	140
187	1	36	35	84
188	5	154	128	155
189	1	51	50	53
190	1	43	44	66
191	1	132	131	148
192	1	92	91	106
193	3	137	136	138
194	1	132	133	144
195	1	47	48	57
196	4	12	33	35
197	5	21	7	22
198	1	88	87	114
199	4	50	51	118
200	1	93	92	104
201	1	128	129	152
202	1	5	6	24
203	1	44	43	67
204	1	48	49	55
205	1	89	88	112
206	1	41	40	74
207	1	2	3	29
208	1	40	39	75
209	1	89	90	108
210	1	120	121	168
211	1	35	36	81
212	1	121	120	170
213	1	3	4	27
214	1	90	91	92
215	1	47	46	61
216	5	170	120	171
217	1	128	127	156
218	5	142	134	143
219	1	48	47	59
220	1	33	35	36
221	1	7	6	23
222	1	43	44	45
223	1	45	44	65
224	1	40	41	71
225	5	81	36	82
226	2	136	138	139
227	5	77	38	78
228	1	93	94	95
229	1	134	135	141
230	5	71	41	72
231	1	124	125	161
232	1	36	37	79
233	1	129	130	151
234	1	41	42	69
235	5	162	124	163
236	1	129	130	131
237	1	87	86	116
238	1	92	93	94
239	1	5	6	23
240	1	134	133	145
241	1	5	6	7
242	1	41	40	73
243	1	49	50	54
244	1	130	129	153
245	1	37	36	82
246	1	135	134	143
247	1	42	41	72
248	1	130	131	149
249	1	9	10	16
250	5	106	91	107
251	1	47	48	49
252	1	91	92	105
253	5	100	94	101
254	1	7	8	9
255	1	126	127	157
256	5	146	132	147
257	1	4	5	26
258	1	86	87	115
259	1	133	132	146
260	1	38	39	76
261	5	104	92	105
262	1	46	47	48
263	1	8	7	21
264	1	36	37	38
265	1	39	40	41
266	1	10	9	17
267	5	57	48	58
268	1	6	5	26
269	1	1	2	32
270	1	134	135	140
271	1	10	11	14
272	1	91	90	109
273	1	96	95	99
274	5	156	127	157
275	1	86	87	88
276	1	38	37	80
277	1	49	50	51
278	5	65	44	66
279	1	42	43	67
280	1	46	45	63
281	1	85	86	116
282	1	87	88	113
283	4	51	118	119
284	5	59	47	60
285	2	11	12	33
286	4	34	33	35
287	4	52	51	118
288	1	118	120	170
289	5	67	43	68
290	1	90	89	110
291	5	63	45	64
292	1	123	122	166
293	1	39	40	74
294	5	114	87	115
295	1	122	121	168
296	1	37	36	81
297	1	42	41	71
298	1	37	38	77
299	1	127	128	129
300	1	91	92	104
301	1	131	132	147
302	1	2	3	4
303	1	33	35	83
304	1	38	39	75
305	1	37	38	39
306	1	6	7	22
307	1	8	9	10
308	1	130	131	132
309	1	6	5	25
310	1	1	2	31
311	5	166	122	167
312	1	129	128	155
313	1	11	10	16
314	1	3	2	31
315	1	131	130	151
316	1	43	42	69
317	5	168	121	169
318	5	19	8	20
319	1	40	41	42
320	1	36	35	83
321	1	48	49	50
322	1	43	44	65
323	1	38	37	79
324	1	92	93	103
325	1	9	8	20
326	5	75	39	76
327	1	125	126	159
328	1	127	128	155
329	5	27	4	28

Dihedrals

1	16	166	122	121	168
2	6	126	127	128	129
2	7	126	127	128	129
2	8	126	127	128	129
3	16	69	42	41	72
4	16	63	45	44	66
5	16	141	135	134	143
6	9	124	125	126	158
7	9	39	38	37	80
8	9	90	91	92	104
9	16	164	123	122	166
10	6	38	39	40	41
10	7	38	39	40	41
10	8	38	39	40	41
11	16	30	3	2	31
12	16	60	47	46	61
13	16	115	87	86	116
14	9	11	10	9	17
15	9	7	6	5	26
16	16	110	89	88	112
17	9	130	129	128	154
18	9	133	132	131	149
19	16	152	129	128	155
20	16	61	46	45	63
21	9	35	36	37	79
22	9	89	88	87	114
23	9	6	5	4	28
24	9	47	48	49	56
25	18	52	51	50	54
25	19	52	51	50	54
25	20	52	51	50	54
26	16	66	44	43	67
27	16	20	8	7	22
28	16	101	94	93	103
29	9	3	4	5	25
30	9	124	123	122	166
31	16	149	131	130	150
32	16	55	49	48	57
33	9	90	89	88	112
34	9	125	126	127	157
35	21	52	51	118	120
36	16	148	131	130	150
37	16	77	38	37	80
38	16	65	44	43	67
39	6	39	40	41	42
39	7	39	40	41	42
39	8	39	40	41	42
40	6	91	92	93	94
40	7	91	92	93	94
40	8	91	92	93	94
41	16	140	135	134	143
42	9	42	43	44	66
43	9	129	130	131	149
44	16	74	40	39	76
45	26	137	136	138	139
45	27	137	136	138	139
46	15	54	50	51	118
47	9	49	48	47	59
48	16	80	37	36	81
49	9	135	134	133	145
50	16	112	88	87	115
51	16	144	133	132	147
52	6	127	128	129	130
52	7	127	128	129	130
52	8	127	128	129	130
53	16	163	124	123	164
54	9	132	131	130	151
55	9	47	46	45	64
56	9	4	5	6	23
57	16	27	4	3	30
58	9	93	92	91	106
59	16	157	127	126	158
60	9	44	43	42	69
61	1	136	135	134	143
62	9	9	10	11	14
63	16	14	11	10	15
64	14	11	12	33	35
65	16	99	95	94	100
66	9	131	132	133	144
67	9	42	41	40	74
68	16	82	36	35	84
69	9	43	42	41	72
70	16	105	92	91	107
71	6	122	123	124	125
71	7	122	123	124	125
71	8	122	123	124	125
72	6	120	121	122	123
72	7	120	121	122	123
72	8	120	121	122	123
73	9	126	125	124	163
74	2	96	95	94	100
74	3	96	95	94	100
75	9	50	49	48	58
76	16	69	42	41	71
77	15	12	33	35	36
78	6	35	36	37	38
78	7	35	36	37	38
78	8	35	36	37	38
79	16	107	91	90	108
80	9	93	94	95	98
81	9	89	90	91	107
82	9	127	126	125	160
83	9	7	6	5	25
84	9	37	38	39	76
85	9	131	130	129	152
86	16	152	129	128	154
87	9	87	88	89	110
88	16	159	126	125	161
89	6	42	43	44	45
89	7	42	43	44	45
89	8	42	43	44	45
90	6	87	88	89	90
90	7	87	88	89	90
90	8	87	88	89	90
91	1	33	35	36	82
92	16	21	7	6	23
93	16	146	132	131	148
94	16	153	129	128	155
95	16	59	47	46	62
96	9	6	5	4	27
97	18	52	51	50	53
97	19	52	51	50	53
97	20	52	51	50	53
98	16	62	46	45	64
99	9	8	7	6	24
100	16	151	130	129	153
101	16	101	94	93	102
102	16	168	121	120	170
103	1	51	50	49	55
104	9	120	121	122	167
105	9	125	126	127	156
106	16	58	48	47	60
107	16	140	135	134	142
108	9	122	123	124	162
109	9	42	43	44	65
110	9	129	130	131	148
111	16	74	40	39	75
112	9	123	124	125	161
113	9	41	40	39	76
114	9	4	3	2	32
115	16	154	128	127	157
116	16	68	43	42	69
117	16	143	134	133	145
118	6	92	93	94	95
118	7	92	93	94	95
118	8	92	93	94	95
119	9	46	47	48	57
120	4	3	2	1	85
121	9	39	40	41	72
122	16	64	45	44	66
123	16	109	90	89	111
124	16	108	90	89	111
125	9	132	131	130	150
126	9	47	46	45	63
127	16	27	4	3	29
128	9	48	49	50	54
129	1	136	135	134	142
130	16	114	87	86	117
131	1	33	35	36	37
132	9	8	9	10	16
133	1	1	2	3	4
134	16	19	8	7	21
135	9	45	46	47	59
136	9	125	124	123	164
137	9	133	134	135	141
138	12	11	12	33	34
138	13	11	12	33	34
139	16	81	36	35	84
140	16	26	5	4	28
141	9	42	41	40	73
142	6	131	132	133	134
142	7	131	132	133	134
142	8	131	132	133	134
143	15	134	135	136	138
144	16	82	36	35	83
145	9	43	42	41	71
146	16	162	124	123	165
147	2	85	86	87	115
147	3	85	86	87	115
148	18	119	118	120	170
148	19	119	118	120	170
148	20	119	118	120	170
149	24	97	96	95	99
150	16	56	49	48	57
151	9	127	128	129	153
152	16	17	9	8	20
153	9	94	93	92	105
154	9	50	49	48	57
155	15	51	118	120	121
156	16	98	95	94	101
157	16	15	10	9	18
158	6	90	91	92	93
158	7	90	91	92	93
158	8	90	91	92	93
159	6	124	125	126	127
159	7	124	125	126	127
159	8	124	125	126	127
160	9	48	47	46	62
161	16	70	42	41	72
162	9	122	121	120	170
163	18	34	33	35	84
163	19	34	33	35	84
163	20	34	33	35	84
164	9	120	121	122	166
165	18	137	136	135	141
165	19	137	136	135	141
165	20	137	136	135	141
166	9	123	122	121	169
167	16	156	127	126	158
168	9	37	38	39	75
169	16	29	3	2	32
170	16	100	94	93	102
171	16	53	50	49	56
172	9	134	133	132	146
173	16	159	126	125	160
174	15	49	50	51	118
175	9	46	45	44	65
176	1	33	35	36	81
177	9	7	8	9	17
178	9	2	3	4	28
179	16	169	121	120	170
180	1	85	86	87	88
181	16	153	129	128	154
182	16	62	46	45	63
183	9	8	7	6	23
184	1	48	49	50	51
185	9	128	129	130	151
186	16	78	38	37	80
187	9	91	92	93	103
188	9	45	44	43	67
189	9	6	7	8	19
190	9	43	44	45	64
191	6	2	3	4	5
191	7	2	3	4	5
191	8	2	3	4	5
192	16	167	122	121	169
193	16	58	48	47	59
194	6	128	129	130	131
194	7	128	129	130	131
194	8	128	129	130	131
195	9	132	133	134	143
196	9	123	124	125	160
197	9	121	122	123	165
198	9	4	3	2	31
199	1	118	120	121	122
200	9	126	127	128	155
201	16	150	130	129	153
202	9	38	39	40	74
203	16	143	134	133	144
204	9	5	4	3	30
205	16	72	41	40	74
206	6	41	42	43	44
206	7	41	42	43	44
206	8	41	42	43	44
207	16	113	88	87	115
208	9	92	91	90	109
209	9	39	40	41	71
210	21	50	51	118	120
211	16	108	90	89	110
212	16	158	126	125	160
213	9	36	37	38	77
214	16	142	134	133	145
215	16	73	40	39	76
216	16	102	93	92	104
217	25	135	136	138	139
218	16	114	87	86	116
219	9	9	8	7	21
220	9	40	41	42	69
221	9	128	127	126	159
222	9	91	90	89	111
223	9	133	134	135	140
224	16	81	36	35	83
225	16	26	5	4	27
226	6	36	37	38	39
226	7	36	37	38	39
226	8	36	37	38	39
227	16	160	125	124	163
228	17	134	135	136	137
229	15	12	33	35	83
230	16	75	39	38	77
231	9	127	128	129	152
232	9	10	9	8	20
233	2	1	2	3	30
233	3	1	2	3	30
234	9	38	37	36	82
235	9	94	93	92	104
236	9	130	131	132	147
237	6	46	47	48	49
237	7	46	47	48	49
237	8	46	47	48	49
238	16	63	45	44	65
239	9	5	6	7	22
240	9	129	128	127	157
241	16	141	135	134	142
242	9	39	38	37	79
243	9	95	94	93	103
244	9	48	47	46	61
245	4	32	2	1	85
246	10	10	11	12	33
246	11	10	11	12	33
247	5	2	1	85	86
248	6	6	7	8	9
248	7	6	7	8	9
248	8	6	7	8	9
249	15	51	118	120	171
250	9	123	122	121	168
251	9	41	42	43	68
252	9	133	132	131	148
253	9	9	10	11	13
254	9	40	39	38	78
255	2	12	11	10	16
255	3	12	11	10	16
256	16	24	6	5	26
257	1	51	50	49	56
258	9	37	36	35	84
259	16	166	122	121	169
260	6	123	124	125	126
260	7	123	124	125	126
260	8	123	124	125	126
261	15	138	136	135	141
262	17	34	33	35	36
263	9	47	48	49	55
264	4	14	11	12	33
265	16	20	8	7	21
266	16	115	87	86	117
267	21	52	51	118	119
268	16	165	123	122	167
269	16	77	38	37	79
270	4	1	85	86	87
271	16	110	89	88	113
272	16	25	5	4	28
273	9	121	122	123	164
274	9	126	127	128	154
275	4	31	2	1	85
276	16	150	130	129	152
277	9	38	39	40	73
278	16	16	10	9	18
279	16	113	88	87	114
280	6	121	122	123	124
280	7	121	122	123	124
280	8	121	122	123	124
281	9	135	134	133	144
282	16	112	88	87	114
283	16	144	133	132	146
284	6	37	38	39	40
284	7	37	38	39	40
284	8	37	38	39	40
285	6	130	131	132	133
285	7	130	131	132	133
285	8	130	131	132	133
286	9	3	4	5	26
287	16	149	131	130	151
288	6	7	8	9	10
288	7	7	8	9	10
288	8	7	8	9	10
289	9	90	89	88	113
290	16	54	50	49	56
291	16	65	44	43	68
292	22	94	95	96	97
292	23	94	95	96	97
293	9	128	127	126	158
294	9	91	90	89	110
295	6	45	46	47	48
295	7	45	46	47	48
295	8	45	46	47	48
296	9	88	89	90	109
297	16	103	93	92	105
298	16	105	92	91	106
299	9	126	125	124	162
300	16	71	41	40	74
301	16	18	9	8	20
302	9	38	37	36	81
303	9	130	131	132	146
304	16	104	92	91	107
305	9	124	123	122	167
306	16	163	124	123	165
307	9	5	6	7	21
308	16	76	39	38	78
309	9	4	5	6	24
310	9	93	92	91	107
311	9	44	45	46	62
312	16	157	127	126	159
313	17	119	118	120	121
314	16	14	11	10	16
315	9	89	90	91	106
316	15	51	118	120	170
317	16	165	123	122	166
318	9	41	42	43	67
319	1	9	10	11	12
320	2	12	11	10	15
320	3	12	11	10	15
321	9	37	36	35	83
322	9	92	93	94	101
323	2	96	95	94	101
323	3	96	95	94	101
324	15	138	136	135	140
325	16	59	47	46	61
326	16	151	130	129	152
327	1	118	120	121	169
328	16	107	91	90	109
329	9	93	94	95	99
330	9	127	126	125	161
331	16	155	128	127	157
332	1	133	134	135	136
333	9	88	87	86	117
334	16	106	91	90	109
335	9	86	87	88	113
336	9	131	130	129	153
337	16	25	5	4	27
338	9	41	40	39	75
339	9	87	88	89	111
340	16	154	128	127	156
341	16	22	7	6	24
342	16	147	132	131	149
343	16	16	10	9	17
344	16	21	7	6	24
345	16	146	132	131	149
346	4	1	85	86	117
347	16	64	45	44	65
348	16	109	90	89	110
349	16	79	37	36	82
350	16	168	121	120	171
351	9	48	49	50	53
352	16	161	125	124	163
353	16	145	133	132	147
354	16	54	50	49	55
355	9	8	9	10	15
356	9	122	123	124	163
357	6	43	44	45	46
357	7	43	44	45	46
357	8	43	44	45	46
358	6	89	90	91	92
358	7	89	90	91	92
358	8	89	90	91	92
359	6	125	126	127	128
359	7	125	126	127	128
359	8	125	126	127	128
360	9	88	89	90	108
361	16	103	93	92	104
362	16	13	11	10	16
363	15	53	50	51	118
364	16	162	124	123	164
365	4	13	11	12	33
366	2	85	86	87	114
366	3	85	86	87	114
367	16	57	48	47	60
368	16	68	43	42	70
369	24	97	96	95	98
370	16	67	43	42	70
371	16	71	41	40	73
372	16	18	9	8	19
373	9	46	47	48	58
374	16	17	9	8	19
375	16	104	92	91	106
376	16	28	4	3	30
377	16	111	89	88	113
378	16	76	39	38	77
379	16	98	95	94	100
380	9	44	45	46	61
381	16	15	10	9	17
382	1	93	94	95	96
383	16	70	42	41	71
384	6	4	5	6	7
384	7	4	5	6	7
384	8	4	5	6	7
385	16	19	8	7	22
386	18	34	33	35	83
386	19	34	33	35	83
386	20	34	33	35	83
387	9	45	46	47	60
388	9	125	124	123	165
389	18	137	136	135	140
389	19	137	136	135	140
389	20	137	136	135	140
390	16	29	3	2	31
391	16	53	50	49	55
392	18	119	118	120	171
392	19	119	118	120	171
392	20	119	118	120	171
393	16	23	6	5	26
394	16	56	49	48	58
395	9	92	93	94	100
396	9	2	3	4	27
397	9	124	125	126	159
398	9	90	91	92	105
399	1	118	120	121	168
400	6	5	6	7	8
400	7	5	6	7	8
400	8	5	6	7	8
401	16	30	3	2	32
402	16	60	47	46	62
403	9	128	129	130	150
404	9	91	92	93	102
405	9	43	44	45	63
406	16	78	38	37	79
407	9	122	121	120	171
408	6	3	4	5	6
408	7	3	4	5	6
408	8	3	4	5	6
409	9	11	10	9	18
410	16	155	128	127	156
411	16	167	122	121	168
412	9	130	129	128	155
413	9	88	87	86	116
414	9	132	133	134	142
415	16	156	127	126	159
416	16	106	91	90	108
417	9	86	87	88	112
418	17	49	50	51	52
419	16	61	46	45	64
420	9	35	36	37	80
421	16	100	94	93	103
422	9	134	133	132	147
423	16	22	7	6	23
424	16	147	132	131	148
425	9	46	45	44	66
426	9	7	8	9	18
427	9	5	4	3	29
428	16	169	121	120	171
429	16	72	41	40	73
430	9	89	88	87	115
431	9	92	91	90	108
432	4	1	85	86	116
433	21	50	51	118	119
434	16	164	123	122	167
435	16	66	44	43	68
436	16	79	37	36	81
437	16	142	134	133	144
438	16	55	49	48	58
439	16	161	125	124	162
440	16	73	40	39	75
441	16	148	131	130	151
442	6	44	45	46	47
442	7	44	45	46	47
442	8	44	45	46	47
443	9	45	44	43	68
444	9	6	7	8	20
445	16	145	133	132	146
446	6	132	133	134	135
446	7	132	133	134	135
446	8	132	133	134	135
447	16	160	125	124	162
448	16	13	11	10	15
449	6	8	9	10	11
449	7	8	9	10	11
449	8	8	9	10	11
450	9	49	48	47	60
451	16	57	48	47	59
452	16	67	43	42	69
453	16	80	37	36	82
454	9	10	9	8	19
455	2	1	2	3	29
455	3	1	2	3	29
456	6	47	48	49	50
456	7	47	48	49	50
456	8	47	48	49	50
457	9	129	128	127	156
458	16	28	4	3	29
459	16	111	89	88	112
460	16	158	126	125	161
461	9	36	37	38	78
462	9	95	94	93	102
463	9	44	43	42	70
464	16	102	93	92	105
465	9	9	8	7	22
466	9	40	41	42	70
467	9	131	132	133	145
468	16	99	95	94	101
469	15	12	33	35	84
470	6	129	130	131	132
470	7	129	130	131	132
470	8	129	130	131	132
471	9	40	39	38	77
472	16	24	6	5	25
473	6	88	89	90	91
473	7	88	89	90	91
473	8	88	89	90	91
474	6	40	41	42	43
474	7	40	41	42	43
474	8	40	41	42	43
475	6	86	87	88	89
475	7	86	87	88	89
475	8	86	87	88	89
476	16	75	39	38	78
477	16	23	6	5	25

Impropers

52	1	33	35	12	34
110	2	118	119	120	51
240	2	118	120	51	119
242	1	136	138	135	137
584	2	51	52	118	50
700	2	51	118	50	52
735	1	33	12	34	35
849	1	33	34	35	12
1002	2	118	51	119	120
1020	1	136	135	137	138
1032	2	51	50	52	118
1063	1	136	137	138	135
