Title

184 atoms
183 bonds
348 angles
629 dihedrals
30 impropers

12 atom types
17 bond types
10 angle types
42 dihedral types
3 improper types
-5.921999931 94.07800007 xlo xhi
-5.191999912 94.80800009 ylo yhi
-15.77000046 84.22999954 zlo zhi
0.0 0.0 0.0 xy xz yz

Masses

1	12.01078
2	15.99943
3	14.00672
4	12.01078
5	1.007947
6	1.007947
7	1.007947
8	15.99943
9	1.007947
10	12.01078
11	15.99943
12	1.007947


Pair Coeffs

1	0.086879315	3.4806469
2	0.2102061	3.0398122
3	0.16769152	3.206876
4	0.10884061	3.3795318
5	0.014090815	1.1034277
6	0.016409246	2.5832257
7	0.015779483	2.6445434
8	0.16846514	3.0251065
9	0.015611343	2.5725815
10	0.21	3.3996695
11	0.20947353	2.99716
12	1.2326e-05	0.53453923

Bond Coeffs

1 harmonic	582.698766451	1.225198386222
2 harmonic	492.76746816345	1.381897776683
3 harmonic	279.1350963404	1.454628925034
4 harmonic	352.0565580496	1.450098586273
5 harmonic	505.144496193	1.019481865027
6 harmonic	264.62148576755	1.52190126495
7 harmonic	370.04670688625	1.093899492634
8 harmonic	301.15400723785	1.345741232799
9 harmonic	366.7408841747	1.425895053732
10 harmonic	289.73813263395	1.498646816465
11 harmonic	399.1592953295	1.371688562017
12 harmonic	397.2545789619	1.085358495916
13 harmonic	300.03137914615	1.451203938761
14 harmonic	366.34047229585	1.464762957261
15 harmonic	602.81384337	1.196112346392
16 harmonic	329.96998057905	1.427343958716
17 harmonic	543.5267831885	0.9716763312559


Angle Coeffs

1 harmonic	55.42182150775	117.3465570514
2 harmonic	63.44422595415	115.5071327674
3 harmonic	57.8982893754	126.8062420451
4 harmonic	53.20531626545	116.5475862634
5 harmonic	65.09061609600001	110.3538806181
6 harmonic	201.41175231035	127.4691416191
7 harmonic	48.776492647595	115.6030999533
8 harmonic	34.066775159195	129.1835929926
9 harmonic	55.07882548015	112.8714009681
10 harmonic	33.56981613361	180


Dihedral Coeffs

1 fourier 1	-0.1488678166443	4	180
2 fourier 1	-0.1230328948768	3	180
3 fourier 1	0.2939295466901	2	0
4 fourier 1	-0.3024127022865	1	0
5 fourier 1	0.182238503271	2	0
6 fourier 1	0.02972342374561	3	0
7 fourier 1	1.809047390003	2	180
8 fourier 1	-0.04816277792592	1	0
9 fourier 1	3.101948770557	2	180
10 fourier 1	-0.4252153282372	1	0
11 fourier 1	2.348375642009	2	180
12 fourier 1	1.256156174911	1	0
13 fourier 1	0.9974165607242	2	180
14 fourier 1	0.1155372516788	3	0
15 fourier 1	0.09223874044423	3	0
16 fourier 1	0.3159935921949	2	180
17 fourier 1	0.3247796806857	1	180
18 fourier 1	0.1040663847541	3	0
19 fourier 1	2.779853741805	2	180
20 fourier 1	0.1918272375143	3	0
21 fourier 1	0.9202179876409	1	180
22 fourier 1	0.0473758381877	3	0
23 fourier 1	0.4860993122944	2	180
24 fourier 1	0.8916986138746	1	0
25 fourier 1	1.163809172478	2	180
26 fourier 1	0.1679186987369	1	180
27 fourier 1	0.1911926717192	3	0
28 fourier 1	0.1115525666802	3	0
29 fourier 1	0.3432490222662	1	0
30 fourier 1	-0.3703352413219	2	0
31 fourier 1	0.02664938770063	3	0
32 fourier 1	5.082239018622	2	180
33 fourier 1	1.654695451548	1	180
34 fourier 1	5.294842998052	2	180
35 fourier 1	0.2962286176719	3	180
36 fourier 1	0.007435022645929	1	0
37 fourier 1	0.457973137376	1	0
38 fourier 1	-1.382973039546	1	0
39 fourier 1	0	1	0
40 fourier 1	0.3445382149273	3	0
41 fourier 1	0.1364556373303	1	0
42 fourier 1	0.3026390167484	3	0


Improper Coeffs

1 0.3333333333333333	-1	2
2 0.3666666666666667	-1	2
3 3.5	-1	2


Atoms

1	1	1	0.53837299	-4.8540001	2.108	-1.138
2	1	2	-0.71620703	-5.5139999	2.6600001	-0.21799999
3	1	3	-0.52790999	-4.4949999	0.72399998	-1.057
4	1	4	0.027683999	-4.848	-0.121	0.082999997
5	1	4	-0.148451	-3.99	0.208	1.3150001
6	1	4	-0.14370801	-2.4749999	0.1	1.0650001
7	1	4	-0.14330301	-2.026	-1.34	0.759
8	1	4	-0.142058	-0.49700001	-1.493	0.76800001
9	1	4	-0.142058	0.176	-0.75	-0.39899999
10	1	4	-0.14330301	1.661	-1.117	-0.55800003
11	1	4	-0.14370801	2.53	-0.56400001	0.58499998
12	1	4	-0.14717799	4.0250001	-0.87900001	0.391
13	1	4	0.021752	4.7160001	0.029999999	-0.63800001
14	1	3	-0.472442	4.8169999	1.409	-0.15899999
15	1	1	0.78065097	5.3839998	2.4430001	-0.96700001
16	1	2	-0.63604897	5.8080001	2.1960001	-2.128
17	1	5	0.31957999	4.4910002	1.664	0.801
18	1	6	0.047324002	5.7399998	-0.36000001	-0.82099998
19	1	6	0.047324002	4.1700001	0.0080000004	-1.604
20	1	7	0.081206001	4.145	-1.9400001	0.079999998
21	1	7	0.081206001	4.546	-0.76899999	1.367
22	1	7	0.080200002	2.2119999	-1.036	1.539
23	1	7	0.080200002	2.375	0.53100002	0.685
24	1	7	0.079460002	1.77	-2.2219999	-0.61799997
25	1	7	0.079460002	2.007	-0.69400001	-1.524
26	1	7	0.079460002	0.082999997	0.34799999	-0.259
27	1	7	0.079460002	-0.34400001	-1.016	-1.345
28	1	7	0.079460002	-0.098999999	-1.127	1.739
29	1	7	0.079460002	-0.26199999	-2.5780001	0.69300002
30	1	7	0.079460002	-2.4449999	-2.0220001	1.5319999
31	1	7	0.079460002	-2.4200001	-1.663	-0.228
32	1	7	0.080200002	-1.954	0.456	1.98
33	1	7	0.080200002	-2.188	0.77600002	0.23199999
34	1	7	0.081206001	-4.2189999	1.242	1.65
35	1	7	0.081206001	-4.277	-0.472	2.1459999
36	1	6	0.043855999	-4.7150002	-1.189	-0.192
37	1	6	0.043855999	-5.9219999	0.017999999	0.331
38	1	5	0.31299201	-4.0040002	0.29100001	-1.8710001
39	1	8	-0.50303102	5.4489999	3.4089999	-0.59500003
40	1	4	0.111182	6.21	4.1490002	-1.513
41	1	4	-0.141257	7.6950002	4.1139998	-1.138
42	1	4	-0.142223	8.2939997	2.71	-1.295
43	1	4	-0.143388	9.7950001	2.714	-0.98100001
44	1	4	-0.141958	10.394	1.311	-1.13
45	1	4	-0.13485301	11.901	1.324	-0.83700001
46	1	4	-0.132852	12.519	-0.086999997	-0.82200003
47	1	4	-0.089417003	12.484	-0.80699998	-2.1819999
48	1	1	-0.079828002	13.176	-0.029999999	-3.2690001
49	1	1	-0.081115	14.503	0.15899999	-3.263
50	1	4	-0.113443	15.169	0.93599999	-4.3709998
51	1	4	0.053422999	16.705	1.048	-4.2459998
52	1	8	-0.139543	17.099001	1.479	-2.964
53	1	4	-0.148333	17.493999	-0.192	-4.744
54	1	4	-0.13756999	17.091	-1.534	-4.0999999
55	1	4	-0.142975	18.027	-2.684	-4.5079999
56	1	4	-0.14692201	17.872999	-3.0780001	-5.987
57	1	4	-0.140919	18.611	-4.382	-6.3280001
58	1	4	-0.128268	20.131001	-4.2290001	-6.2849998
59	1	7	0.045515001	20.478001	-4.0500002	-5.2470002
60	1	7	0.045515001	20.457001	-3.3889999	-6.9349999
61	1	7	0.045515001	20.606001	-5.1630001	-6.651
62	1	7	0.069833003	18.299	-5.1919999	-5.6350002
63	1	7	0.069833003	18.320999	-4.6900001	-7.3559999
64	1	7	0.080320999	16.794001	-3.227	-6.2129998
65	1	7	0.080320999	18.247	-2.263	-6.6430001
66	1	7	0.079460002	17.784	-3.5639999	-3.8729999
67	1	7	0.079460002	19.079	-2.395	-4.2950001
68	1	7	0.080528997	16.049999	-1.7970001	-4.3839998
69	1	7	0.080528997	17.134001	-1.45	-2.9949999
70	1	7	0.089901	17.348	-0.26699999	-5.8429999
71	1	7	0.089901	18.576	-0.0099999998	-4.566
72	1	6	0.083940998	16.997	1.8660001	-4.941
73	1	7	0.100152	14.742	1.9630001	-4.3709998
74	1	7	0.100152	14.915	0.47099999	-5.3499999
75	1	9	0.13338301	15.09	-0.25600001	-2.451
76	1	9	0.129434	12.577	0.36500001	-4.085
77	1	7	0.076711997	11.432	-0.99800003	-2.48
78	1	7	0.076711997	12.972	-1.8	-2.0780001
79	1	7	0.079121999	13.574	-0.0070000002	-0.48199999
80	1	7	0.079121999	11.986	-0.71100003	-0.072999999
81	1	7	0.077587999	12.425	1.962	-1.581
82	1	7	0.077587999	12.069	1.777	0.164
83	1	7	0.079460002	9.8850002	0.61699998	-0.426
84	1	7	0.079460002	10.22	0.95700002	-2.1689999
85	1	7	0.079460002	10.314	3.411	-1.676
86	1	7	0.079460002	9.9510002	3.073	0.059999999
87	1	7	0.081175998	7.7800002	2.0079999	-0.602
88	1	7	0.081175998	8.1370001	2.3559999	-2.3380001
89	1	7	0.084972002	8.2410002	4.8210001	-1.8
90	1	7	0.084972002	7.8150001	4.46	-0.088
91	1	6	0.077532999	6.0609999	3.779	-2.5550001
92	1	6	0.077532999	5.862	5.2030001	-1.484
93	1	1	0.53837299	-4.5609999	2.687	-2.003
94	1	2	-0.71620703	-4.8740001	3.905	-2.0680001
95	1	3	-0.52790999	-3.8310001	2.0580001	-3.062
96	1	4	0.027683999	-3.3940001	2.776	-4.2589998
97	1	4	-0.148451	-2.207	3.698	-3.954
98	1	4	-0.14370801	-0.97299999	2.9059999	-3.4909999
99	1	4	-0.14330301	0.27200001	3.793	-3.3329999
100	1	4	-0.142058	0.15899999	4.763	-2.1440001
101	1	4	-0.142058	1.49	5.46	-1.823
102	1	4	-0.14312001	1.9220001	6.4419999	-2.9260001
103	1	4	-0.139314	3.1040001	7.3260002	-2.4990001
104	1	4	-0.124767	4.415	6.533	-2.362
105	1	4	0.181178	5.6110001	7.4520001	-2.099
106	1	3	-0.68071198	5.4899998	8.0839996	-0.78899997
107	1	10	0.59107798	5.4660001	9.3479996	-0.65100002
108	1	2	-0.51321602	5.4419999	10.578	-0.51800001
109	1	6	0.024018001	5.6919999	8.2110004	-2.9119999
110	1	6	0.024018001	6.54	6.8439999	-2.1129999
111	1	7	0.074886002	4.605	5.9699998	-3.3010001
112	1	7	0.074886002	4.336	5.802	-1.529
113	1	7	0.078933001	2.8629999	7.8340001	-1.54
114	1	7	0.078933001	3.24	8.1140003	-3.2720001
115	1	7	0.079460002	2.194	5.8870001	-3.849
116	1	7	0.079460002	1.068	7.1100001	-3.1719999
117	1	7	0.079460002	1.364	6.0170002	-0.86900002
118	1	7	0.079460002	2.277	4.691	-1.664
119	1	7	0.079460002	-0.61699998	5.5320001	-2.348
120	1	7	0.079460002	-0.15700001	4.1960001	-1.2410001
121	1	7	0.079460002	0.442	4.3590002	-4.2740002
122	1	7	0.079460002	1.148	3.1270001	-3.175
123	1	7	0.080200002	-0.74299997	2.1240001	-4.2480001
124	1	7	0.080200002	-1.188	2.391	-2.53
125	1	7	0.081206001	-2.5050001	4.4320002	-3.1760001
126	1	7	0.081206001	-1.957	4.2620001	-4.8790002
127	1	6	0.043855999	-3.0999999	2.0439999	-5.0419998
128	1	6	0.043855999	-4.2389998	3.3740001	-4.665
129	1	5	0.31299201	-3.652	1.031	-2.9979999
130	1	8	-0.180035	17.167	0.68800002	-2.368
131	1	4	0.035172999	18.503	0.60699999	-1.949
132	1	4	-0.14726	19.315001	-0.28200001	-2.895
133	1	4	-0.140956	19.462	0.345	-4.2880001
134	1	4	-0.14333799	20.336	-0.52899998	-5.1950002
135	1	4	-0.141958	20.479	0.092	-6.5890002
136	1	4	-0.13485301	21.372999	-0.77499998	-7.4879999
137	1	4	-0.132852	21.421	-0.27399999	-8.9429998
138	1	4	-0.089417003	22.073999	1.109	-9.1149998
139	1	1	-0.079828002	23.481001	1.158	-8.5819998
140	1	1	-0.072043002	24.478001	0.47600001	-9.1619997
141	1	4	-0.13680901	25.878	0.55199999	-8.6079998
142	1	4	0.099535003	26.927999	-0.26300001	-9.3979998
143	1	11	-0.69196302	26.503	-1.585	-9.6300001
144	1	12	0.38807699	25.954	-1.604	-10.453
145	1	4	-0.170605	27.475	0.43599999	-10.671
146	1	4	-0.132992	26.408001	0.89099997	-11.686
147	1	4	-0.142975	27.025999	1.411	-12.994
148	1	4	-0.14692201	27.76	2.7520001	-12.81
149	1	4	-0.140919	28.153	3.395	-14.149
150	1	4	-0.128268	29.254999	2.6240001	-14.875
151	1	7	0.045515001	28.884001	1.6339999	-15.211
152	1	7	0.045515001	30.134001	2.484	-14.211
153	1	7	0.045515001	29.576	3.1960001	-15.77
154	1	7	0.069833003	27.261999	3.4820001	-14.809
155	1	7	0.069833003	28.521999	4.4239998	-13.948
156	1	7	0.080320999	27.093	3.461	-12.273
157	1	7	0.080320999	28.672001	2.609	-12.191
158	1	7	0.079460002	26.204	1.548	-13.73
159	1	7	0.079460002	27.721001	0.64600003	-13.403
160	1	7	0.080528997	25.773001	1.687	-11.243
161	1	7	0.080528997	25.75	0.037	-11.95
162	1	7	0.093023002	28.056999	1.325	-10.346
163	1	7	0.093023002	28.184999	-0.25799999	-11.17
164	1	6	0.069372997	27.806999	-0.34400001	-8.7200003
165	1	7	0.101537	25.853001	0.17	-7.5640001
166	1	7	0.101537	26.198999	1.6160001	-8.5640001
167	1	9	0.13338301	24.261999	-0.12800001	-10.037
168	1	9	0.129434	23.684	1.781	-7.7150002
169	1	7	0.076711997	21.461	1.881	-8.6049995
170	1	7	0.076711997	22.087	1.372	-10.195
171	1	7	0.079121999	21.979	-1.017	-9.5539999
172	1	7	0.079121999	20.386999	-0.235	-9.3509998
173	1	7	0.077587999	22.4	-0.82200003	-7.066
174	1	7	0.077587999	20.972	-1.812	-7.5
175	1	7	0.079460002	19.472	0.192	-7.052
176	1	7	0.079460002	20.926001	1.104	-6.4850001
177	1	7	0.079460002	21.344	-0.64099997	-4.7379999
178	1	7	0.079460002	19.875999	-1.538	-5.2870002
179	1	7	0.081347004	18.458	0.45899999	-4.7509999
180	1	7	0.081347004	19.924999	1.352	-4.191
181	1	7	0.085972004	20.323999	-0.435	-2.4530001
182	1	7	0.085972004	18.82	-1.275	-2.9790001
183	1	6	0.077312	18.965	1.618	-1.869
184	1	6	0.077312	18.521999	0.155	-0.93400002

Bonds

1	1	1	2
2	2	1	3
3	3	1	93
4	4	3	4
5	5	3	38
6	6	4	5
7	7	4	36
8	7	4	37
9	6	5	6
10	7	5	34
11	7	5	35
12	6	6	7
13	7	6	32
14	7	6	33
15	6	7	8
16	7	7	30
17	7	7	31
18	6	8	9
19	7	8	28
20	7	8	29
21	6	9	10
22	7	9	26
23	7	9	27
24	6	10	11
25	7	10	24
26	7	10	25
27	6	11	12
28	7	11	22
29	7	11	23
30	6	12	13
31	7	12	20
32	7	12	21
33	4	13	14
34	7	13	18
35	7	13	19
36	2	14	15
37	5	14	17
38	1	15	16
39	8	15	39
40	9	39	40
41	6	40	41
42	7	40	91
43	7	40	92
44	6	41	42
45	7	41	89
46	7	41	90
47	6	42	43
48	7	42	87
49	7	42	88
50	6	43	44
51	7	43	85
52	7	43	86
53	6	44	45
54	7	44	83
55	7	44	84
56	6	45	46
57	7	45	81
58	7	45	82
59	6	46	47
60	7	46	79
61	7	46	80
62	10	47	48
63	7	47	77
64	7	47	78
65	11	48	49
66	12	48	76
67	10	49	50
68	12	49	75
69	6	50	51
70	7	50	73
71	7	50	74
72	9	51	52
73	6	51	53
74	7	51	72
75	13	52	130
76	6	53	54
77	7	53	70
78	7	53	71
79	6	54	55
80	7	54	68
81	7	54	69
82	6	55	56
83	7	55	66
84	7	55	67
85	6	56	57
86	7	56	64
87	7	56	65
88	6	57	58
89	7	57	62
90	7	57	63
91	7	58	59
92	7	58	60
93	7	58	61
94	1	93	94
95	2	93	95
96	4	95	96
97	5	95	129
98	6	96	97
99	7	96	127
100	7	96	128
101	6	97	98
102	7	97	125
103	7	97	126
104	6	98	99
105	7	98	123
106	7	98	124
107	6	99	100
108	7	99	121
109	7	99	122
110	6	100	101
111	7	100	119
112	7	100	120
113	6	101	102
114	7	101	117
115	7	101	118
116	6	102	103
117	7	102	115
118	7	102	116
119	6	103	104
120	7	103	113
121	7	103	114
122	6	104	105
123	7	104	111
124	7	104	112
125	14	105	106
126	7	105	109
127	7	105	110
128	15	106	107
129	1	107	108
130	9	130	131
131	6	131	132
132	7	131	183
133	7	131	184
134	6	132	133
135	7	132	181
136	7	132	182
137	6	133	134
138	7	133	179
139	7	133	180
140	6	134	135
141	7	134	177
142	7	134	178
143	6	135	136
144	7	135	175
145	7	135	176
146	6	136	137
147	7	136	173
148	7	136	174
149	6	137	138
150	7	137	171
151	7	137	172
152	10	138	139
153	7	138	169
154	7	138	170
155	11	139	140
156	12	139	168
157	10	140	141
158	12	140	167
159	6	141	142
160	7	141	165
161	7	141	166
162	16	142	143
163	6	142	145
164	7	142	164
165	17	143	144
166	6	145	146
167	7	145	162
168	7	145	163
169	6	146	147
170	7	146	160
171	7	146	161
172	6	147	148
173	7	147	158
174	7	147	159
175	6	148	149
176	7	148	156
177	7	148	157
178	6	149	150
179	7	149	154
180	7	149	155
181	7	150	151
182	7	150	152
183	7	150	153

Angles

1	4	137	136	174
2	4	132	133	180
3	4	106	105	110
4	5	52	130	131
5	7	117	101	118
6	4	44	43	85
7	4	147	148	156
8	7	177	134	178
9	4	142	145	162
10	4	102	103	104
11	3	14	15	39
12	4	133	134	178
13	7	121	99	122
14	4	54	55	67
15	3	14	15	16
16	4	148	147	158
17	4	51	50	73
18	4	12	11	23
19	4	101	102	115
20	4	134	133	180
21	4	139	138	169
22	4	141	142	145
23	4	12	13	19
24	4	7	8	28
25	4	49	50	74
26	4	133	134	135
27	4	149	148	156
28	4	57	58	59
29	4	13	12	21
30	4	135	134	178
31	4	52	51	53
32	4	130	131	184
33	4	147	148	149
34	4	40	41	42
35	4	6	5	35
36	7	59	58	61
37	7	183	131	184
38	4	100	99	121
39	4	131	132	182
40	4	146	147	148
41	4	4	5	6
42	4	55	56	65
43	4	45	44	84
44	4	40	41	90
45	4	45	46	80
46	7	77	47	78
47	7	152	150	153
48	4	8	9	27
49	4	99	100	101
50	4	41	42	88
51	4	134	135	175
52	4	46	47	78
53	3	48	49	50
54	7	73	50	74
55	4	149	150	151
56	7	60	58	61
57	4	42	43	86
58	4	135	136	173
59	4	55	54	69
60	4	102	103	114
61	4	8	7	31
62	7	111	104	112
63	7	156	148	157
64	4	141	142	164
65	4	103	104	112
66	3	94	93	95
67	4	134	133	179
68	7	28	8	29
69	4	49	50	73
70	4	9	8	29
71	4	135	134	177
72	4	130	131	183
73	3	47	48	49
74	4	50	51	52
75	4	137	138	170
76	4	98	99	122
77	4	102	101	118
78	7	59	58	60
79	4	137	138	139
80	7	70	53	71
81	7	22	11	23
82	4	131	132	181
83	4	100	101	102
84	4	103	104	105
85	7	24	10	25
86	8	138	139	168
87	7	85	43	86
88	4	103	102	116
89	4	55	56	64
90	2	13	14	17
91	7	89	41	90
92	3	1	93	95
93	4	9	10	25
94	4	99	100	120
95	4	8	9	26
96	3	2	1	3
97	4	140	141	142
98	4	5	6	32
99	4	96	97	126
100	8	48	49	75
101	4	41	42	43
102	10	106	107	108
103	4	146	145	162
104	1	93	95	96
105	4	3	4	37
106	7	119	100	120
107	4	97	98	124
108	4	136	137	138
109	3	139	140	141
110	4	102	103	113
111	4	10	9	26
112	4	56	55	67
113	4	140	141	166
114	4	56	57	63
115	4	54	55	56
116	4	10	11	23
117	7	34	5	35
118	4	51	53	54
119	4	14	13	19
120	4	103	104	111
121	7	181	132	182
122	4	11	10	25
123	7	125	97	126
124	4	136	137	171
125	4	7	6	32
126	4	132	131	184
127	4	97	96	128
128	7	175	135	176
129	4	137	138	169
130	4	147	146	160
131	7	123	98	124
132	4	97	98	99
133	4	133	132	182
134	4	11	12	21
135	4	138	137	172
136	4	12	13	18
137	4	57	56	65
138	4	101	100	119
139	7	169	138	170
140	8	139	140	167
141	4	57	58	61
142	4	143	142	145
143	4	47	46	80
144	7	18	13	19
145	7	68	54	69
146	8	47	48	76
147	3	3	1	93
148	4	104	105	106
149	4	53	54	69
150	7	64	56	65
151	6	16	15	39
152	4	136	135	175
153	7	36	4	37
154	2	96	95	129
155	4	48	47	78
156	4	43	44	84
157	4	96	97	125
158	4	6	7	31
159	4	4	5	35
160	4	137	136	173
161	4	130	131	132
162	4	39	40	92
163	4	132	133	179
164	4	106	105	109
165	3	138	139	140
166	4	3	4	36
167	4	44	45	82
168	4	96	97	98
169	7	109	105	110
170	4	104	103	114
171	4	97	98	123
172	7	32	6	33
173	4	95	96	128
174	4	104	105	110
175	7	79	46	80
176	4	45	46	47
177	4	50	51	72
178	4	148	149	155
179	4	133	134	177
180	2	1	3	38
181	4	140	141	165
182	4	54	55	66
183	4	56	57	62
184	4	8	9	10
185	4	105	104	112
186	4	10	11	22
187	1	1	3	4
188	4	12	11	22
189	4	100	101	118
190	4	41	40	92
191	4	6	7	8
192	4	46	45	82
193	4	11	10	24
194	4	149	150	153
195	4	13	12	20
196	4	132	131	183
197	7	20	12	21
198	4	39	40	41
199	4	42	43	44
200	4	42	41	90
201	4	145	142	164
202	4	6	5	34
203	4	53	54	55
204	4	148	147	159
205	4	133	132	181
206	4	51	50	74
207	4	10	11	12
208	4	57	56	64
209	4	49	50	51
210	4	149	148	157
211	4	57	58	60
212	4	45	44	83
213	2	15	14	17
214	4	40	41	89
215	4	134	135	136
216	4	45	46	79
217	1	13	14	15
218	4	142	141	166
219	4	53	54	68
220	4	9	10	11
221	7	160	146	161
222	4	98	97	126
223	4	41	42	87
224	4	100	99	122
225	2	4	3	38
226	4	46	47	77
227	4	6	7	30
228	4	4	5	34
229	7	83	44	84
230	4	99	98	124
231	4	42	43	85
232	4	55	56	57
233	4	104	103	113
234	4	55	54	68
235	7	115	102	116
236	4	104	105	109
237	4	58	57	63
238	4	148	149	154
239	4	105	104	111
240	4	134	135	176
241	4	8	7	30
242	5	15	39	40
243	4	5	6	7
244	4	100	101	117
245	4	41	40	91
246	9	105	106	107
247	4	54	53	71
248	7	179	133	180
249	7	127	96	128
250	4	141	142	143
251	4	12	13	14
252	4	46	45	81
253	4	149	150	152
254	7	173	136	174
255	4	135	136	174
256	4	9	8	28
257	4	42	41	89
258	4	3	4	5
259	4	5	4	37
260	4	131	132	133
261	4	98	99	121
262	4	102	101	117
263	2	93	95	129
264	4	14	13	18
265	4	51	53	71
266	4	43	44	45
267	4	46	47	48
268	8	141	140	167
269	4	103	102	115
270	8	49	48	76
271	4	150	149	155
272	4	142	141	165
273	7	66	55	67
274	4	145	146	161
275	3	1	93	94
276	4	9	10	24
277	4	50	51	53
278	7	165	141	166
279	4	99	100	119
280	4	142	145	146
281	4	98	97	125
282	4	56	57	58
283	4	95	96	97
284	4	146	147	159
285	7	62	57	63
286	4	138	137	171
287	4	99	98	123
288	3	2	1	93
289	4	52	51	72
290	4	56	55	66
291	4	58	57	62
292	7	171	137	172
293	7	113	103	114
294	4	132	133	134
295	4	135	136	137
296	4	5	6	33
297	4	11	12	13
298	7	151	150	153
299	4	98	99	100
300	7	30	7	31
301	4	7	8	9
302	4	43	42	88
303	4	54	53	70
304	4	101	102	103
305	7	26	9	27
306	4	146	145	163
307	4	44	43	86
308	4	147	148	157
309	4	5	4	36
310	4	142	145	163
311	4	10	9	27
312	4	97	96	127
313	4	145	146	147
314	4	101	102	116
315	4	11	12	20
316	4	51	53	70
317	4	53	51	72
318	7	154	149	155
319	4	139	138	170
320	4	7	8	29
321	4	143	142	164
322	4	7	6	33
323	4	47	46	79
324	7	81	45	82
325	5	51	52	130
326	7	91	40	92
327	4	150	149	154
328	4	145	146	160
329	7	162	145	163
330	4	147	146	161
331	4	148	149	150
332	4	48	47	77
333	4	43	44	83
334	4	146	147	158
335	4	101	100	120
336	4	39	40	91
337	4	44	45	81
338	8	50	49	75
339	4	44	45	46
340	4	95	96	127
341	7	87	42	88
342	4	136	135	176
343	7	158	147	159
344	8	140	139	168
345	5	142	143	144
346	4	136	137	172
347	7	151	150	152
348	4	43	42	87

Dihedrals

1	27	182	132	131	184
2	13	3	1	93	95
3	18	98	99	100	120
4	15	10	11	12	13
4	16	10	11	12	13
4	17	10	11	12	13
5	18	42	41	40	92
6	27	116	102	101	118
7	18	134	135	136	174
8	27	181	132	131	183
9	27	27	9	8	29
10	27	126	97	96	127
11	31	166	141	140	167
12	27	115	102	101	118
13	27	120	100	99	121
14	27	176	135	134	177
15	18	4	5	6	32
16	18	46	45	44	84
17	31	165	141	140	167
18	27	157	148	147	159
19	28	52	51	50	74
19	29	52	51	50	74
20	27	19	13	12	20
21	18	58	57	56	64
22	7	13	14	15	39
22	8	13	14	15	39
23	27	23	11	10	25
24	18	131	132	133	179
25	27	178	134	133	180
26	35	48	49	50	73
26	36	48	49	50	73
27	7	13	14	15	16
27	8	13	14	15	16
28	27	69	54	53	71
29	18	9	10	11	23
30	18	99	100	101	117
31	27	22	11	10	24
32	35	139	140	141	165
32	36	139	140	141	165
33	18	8	9	10	25
34	18	142	145	146	161
35	27	158	147	146	160
36	18	10	11	12	20
37	27	61	58	57	63
38	18	141	142	145	163
39	27	170	138	137	171
40	18	12	11	10	25
41	27	24	10	9	26
42	27	169	138	137	171
43	27	72	51	50	73
44	19	14	15	39	40
45	18	134	133	132	182
46	14	48	47	46	79
47	18	55	56	57	63
48	18	102	101	100	120
49	27	68	54	53	70
50	20	15	39	40	41
50	21	15	39	40	41
51	27	173	136	135	175
52	27	67	55	54	68
53	27	63	57	56	64
54	27	28	8	7	31
55	18	6	5	4	37
56	18	147	148	149	154
57	15	6	7	8	9
57	16	6	7	8	9
57	17	6	7	8	9
58	30	48	49	50	51
59	18	98	97	96	128
60	5	17	14	13	19
60	6	17	14	13	19
61	18	7	8	9	26
62	18	42	43	44	83
63	18	97	98	99	121
64	1	1	3	4	5
64	2	1	3	4	5
64	3	1	3	4	5
64	4	1	3	4	5
65	28	39	40	41	89
65	29	39	40	41	89
66	27	71	53	51	72
67	27	21	12	11	22
68	18	54	53	51	72
69	18	136	135	134	177
70	18	43	44	45	81
71	18	104	103	102	115
72	27	20	12	11	23
73	15	43	44	45	46
73	16	43	44	45	46
73	17	43	44	45	46
74	18	57	56	55	66
75	27	160	146	145	163
76	34	75	49	48	76
77	18	45	44	43	86
78	27	88	42	41	89
79	27	174	136	135	176
80	18	8	7	6	32
81	18	146	145	142	164
82	18	146	147	148	156
83	27	33	6	5	35
84	27	82	45	44	83
85	15	134	135	136	137
85	16	134	135	136	137
85	17	134	135	136	137
86	18	6	7	8	29
87	18	147	146	145	162
88	27	34	5	4	37
89	18	54	55	56	64
90	27	159	147	146	161
91	13	3	1	93	94
92	15	101	102	103	104
92	16	101	102	103	104
92	17	101	102	103	104
93	39	105	106	107	108
94	34	141	140	139	168
95	40	141	142	143	144
95	41	141	142	143	144
96	30	139	140	141	142
97	18	42	41	40	91
98	5	97	96	95	129
98	6	97	96	95	129
99	27	116	102	101	117
100	27	112	104	103	113
101	27	27	9	8	28
102	31	142	141	140	167
103	15	50	51	53	54
103	16	50	51	53	54
103	17	50	51	53	54
104	18	46	45	44	83
105	18	43	42	41	89
106	18	137	136	135	176
107	27	164	142	141	166
108	18	40	41	42	88
109	18	44	45	46	80
110	18	105	104	103	114
111	28	52	51	53	71
111	29	52	51	53	71
112	27	23	11	10	24
113	27	90	41	40	92
114	15	100	101	102	103
114	16	100	101	102	103
114	17	100	101	102	103
115	14	143	142	145	146
116	15	146	147	148	149
116	16	146	147	148	149
116	17	146	147	148	149
117	27	60	58	57	62
118	14	95	96	97	126
119	27	69	54	53	70
120	18	9	8	7	31
121	15	54	55	56	57
121	16	54	55	56	57
121	17	54	55	56	57
122	27	123	98	97	126
123	18	136	137	138	170
124	27	32	6	5	35
125	15	42	43	44	45
125	16	42	43	44	45
125	17	42	43	44	45
126	18	12	11	10	24
127	18	11	12	13	19
128	18	148	149	150	153
129	27	84	44	43	86
130	5	37	4	3	38
130	6	37	4	3	38
131	18	134	133	132	181
132	18	138	137	136	173
133	14	140	141	142	164
134	18	55	56	57	62
135	27	171	137	136	174
136	15	97	98	99	100
136	16	97	98	99	100
136	17	97	98	99	100
137	27	78	47	46	80
138	27	25	10	9	27
139	18	132	133	134	178
140	14	49	50	51	53
141	18	100	101	102	116
142	27	28	8	7	30
143	18	6	5	4	36
144	18	53	54	55	67
145	27	86	43	42	87
146	27	124	98	97	126
147	27	163	145	142	164
148	18	145	142	141	166
149	27	114	103	102	116
150	27	113	103	102	116
151	5	127	96	95	129
151	6	127	96	95	129
152	27	154	149	148	156
153	27	18	13	12	21
154	15	132	133	134	135
154	16	132	133	134	135
154	17	132	133	134	135
155	14	130	131	132	133
156	15	141	142	145	146
156	16	141	142	145	146
156	17	141	142	145	146
157	27	62	57	56	65
158	27	121	99	98	123
159	18	148	147	146	161
160	18	135	134	133	180
161	27	174	136	135	175
162	27	156	148	147	159
163	18	103	102	101	118
164	14	3	4	5	6
165	22	53	51	52	130
166	18	6	7	8	28
167	5	15	14	13	18
167	6	15	14	13	18
168	7	38	3	1	93
168	8	38	3	1	93
169	18	101	102	103	114
170	27	34	5	4	36
171	27	159	147	146	160
172	28	143	142	141	165
172	29	143	142	141	165
173	14	45	46	47	48
174	22	52	130	131	184
175	15	7	8	9	10
175	16	7	8	9	10
175	17	7	8	9	10
176	27	31	7	6	32
177	27	153	150	149	154
178	5	93	95	96	128
178	6	93	95	96	128
179	18	102	103	104	112
180	27	119	100	99	122
181	22	15	39	40	92
182	14	139	138	137	171
183	18	137	136	135	175
184	18	53	51	50	74
185	28	130	131	132	182
185	29	130	131	132	182
186	27	35	5	4	37
187	18	100	99	98	124
188	27	164	142	141	165
189	18	44	45	46	79
190	18	55	54	53	71
191	31	74	50	49	75
192	1	12	13	14	15
192	2	12	13	14	15
192	3	12	13	14	15
192	4	12	13	14	15
193	31	168	139	138	170
194	28	52	51	53	70
194	29	52	51	53	70
195	27	117	101	100	120
196	32	138	139	140	141
196	33	138	139	140	141
197	14	3	4	5	35
198	27	89	41	40	91
199	15	40	41	42	43
199	16	40	41	42	43
199	17	40	41	42	43
200	14	95	96	97	125
201	15	147	148	149	150
201	16	147	148	149	150
201	17	147	148	149	150
202	18	9	8	7	30
203	27	64	56	55	67
204	27	177	134	133	180
205	27	26	9	8	29
206	27	83	44	43	85
207	15	8	9	10	11
207	16	8	9	10	11
207	17	8	9	10	11
208	40	144	143	142	145
208	41	144	143	142	145
209	11	2	1	3	38
209	12	2	1	3	38
210	18	47	46	45	82
211	27	32	6	5	34
212	23	16	15	14	17
212	24	16	15	14	17
213	14	95	96	97	98
214	27	87	42	41	90
215	18	7	6	5	35
216	15	102	103	104	105
216	16	102	103	104	105
216	17	102	103	104	105
217	15	131	132	133	134
217	16	131	132	133	134
217	17	131	132	133	134
218	7	1	93	95	96
218	8	1	93	95	96
219	18	150	149	148	157
220	27	152	150	149	155
221	27	77	47	46	79
222	14	140	141	142	143
223	18	56	57	58	60
224	9	94	93	95	96
224	10	94	93	95	96
225	27	151	150	149	155
226	18	44	43	42	87
227	27	66	55	54	68
228	18	53	54	55	66
229	18	101	100	99	122
230	27	124	98	97	125
231	27	118	101	100	120
232	27	29	8	7	31
233	31	73	50	49	75
234	18	145	142	141	165
235	27	113	103	102	115
236	27	65	56	55	67
237	27	18	13	12	20
238	18	11	10	9	27
239	38	107	106	105	109
240	27	62	57	56	64
241	27	85	43	42	88
242	27	179	133	132	182
243	18	145	146	147	159
244	28	143	142	145	162
244	29	143	142	145	162
245	14	106	105	104	112
246	14	14	13	12	21
247	18	133	134	135	176
248	27	81	45	44	84
249	18	96	97	98	124
250	18	101	102	103	113
251	27	182	132	131	183
252	5	17	14	13	18
252	6	17	14	13	18
253	7	1	93	95	129
253	8	1	93	95	129
254	13	2	1	93	95
255	27	155	149	148	157
256	15	142	145	146	147
256	16	142	145	146	147
256	17	142	145	146	147
257	18	98	99	100	119
258	22	52	130	131	183
259	11	94	93	95	129
259	12	94	93	95	129
260	27	162	145	142	164
261	18	134	135	136	173
262	27	115	102	101	117
263	18	102	103	104	111
264	27	119	100	99	121
265	22	15	39	40	91
266	15	55	56	57	58
266	16	55	56	57	58
266	17	55	56	57	58
267	27	157	148	147	158
268	18	149	148	147	159
269	28	52	51	50	73
269	29	52	51	50	73
270	31	168	139	138	169
271	25	16	15	39	40
271	26	16	15	39	40
272	27	109	105	104	112
273	18	5	6	7	31
274	27	178	134	133	179
275	18	9	10	11	22
276	18	133	132	131	184
277	27	177	134	133	179
278	18	142	145	146	160
279	18	8	9	10	24
280	27	61	58	57	62
281	18	141	142	145	162
282	27	126	97	96	128
283	27	120	100	99	122
284	27	176	135	134	178
285	18	4	5	6	33
286	14	136	137	138	139
287	18	50	51	53	71
288	18	102	101	100	119
289	18	135	136	137	172
290	18	150	149	148	156
291	27	152	150	149	154
292	18	103	104	105	110
293	18	56	57	58	59
294	34	47	48	49	75
295	15	44	45	46	47
295	16	44	45	46	47
295	17	44	45	46	47
296	15	5	6	7	8
296	16	5	6	7	8
296	17	5	6	7	8
297	35	48	49	50	74
297	36	48	49	50	74
298	15	53	54	55	56
298	16	53	54	55	56
298	17	53	54	55	56
299	18	101	100	99	121
300	15	9	10	11	12
300	16	9	10	11	12
300	17	9	10	11	12
301	27	118	101	100	119
302	15	135	136	137	138
302	16	135	136	137	138
302	17	135	136	137	138
303	18	51	53	54	69
304	27	29	8	7	30
305	18	98	97	96	127
306	5	128	96	95	129
306	6	128	96	95	129
307	27	30	7	6	33
308	27	65	56	55	66
309	18	11	12	13	18
310	18	99	98	97	126
311	27	79	46	45	82
312	27	72	51	50	74
313	14	48	47	46	80
314	14	39	40	41	42
315	31	51	50	49	75
316	27	85	43	42	87
317	27	179	133	132	181
318	27	20	12	11	22
319	27	160	146	145	162
320	18	145	146	147	158
321	18	45	44	43	85
322	37	51	52	130	131
323	27	173	136	135	176
324	27	63	57	56	65
325	27	125	97	96	128
326	1	93	95	96	97
326	2	93	95	96	97
326	3	93	95	96	97
326	4	93	95	96	97
327	18	135	136	137	171
328	27	33	6	5	34
329	27	81	45	44	83
330	18	96	97	98	123
331	15	99	100	101	102
331	16	99	100	101	102
331	17	99	100	101	102
332	13	2	1	93	94
333	18	13	12	11	23
334	18	56	55	54	69
335	28	39	40	41	90
335	29	39	40	41	90
336	18	40	41	42	87
337	18	105	104	103	113
338	27	90	41	40	91
339	18	146	147	148	157
340	35	49	48	47	78
340	36	49	48	47	78
341	27	170	138	137	172
342	18	133	132	131	183
343	18	147	146	145	163
344	18	54	55	56	65
345	34	50	49	48	76
346	27	123	98	97	125
347	15	51	53	54	55
347	16	51	53	54	55
347	17	51	53	54	55
348	18	136	137	138	169
349	27	112	104	103	114
350	18	148	149	150	152
351	27	84	44	43	85
352	15	4	5	6	7
352	16	4	5	6	7
352	17	4	5	6	7
353	31	137	138	139	168
354	9	2	1	3	4
354	10	2	1	3	4
355	18	50	51	53	70
356	27	122	99	98	124
357	15	133	134	135	136
357	16	133	134	135	136
357	17	133	134	135	136
358	27	171	137	136	173
359	27	172	137	136	174
360	18	10	9	8	29
361	18	43	42	41	90
362	27	78	47	46	79
363	27	25	10	9	26
364	18	103	104	105	109
365	27	111	104	103	114
366	18	132	133	134	177
367	14	49	50	51	52
368	5	12	13	14	17
368	6	12	13	14	17
369	32	47	48	49	50
369	33	47	48	49	50
370	18	100	101	102	115
371	22	52	130	131	132
372	27	60	58	57	63
373	18	41	42	43	86
374	22	50	51	52	130
375	38	104	105	106	107
376	5	1	3	4	37
376	6	1	3	4	37
377	18	51	53	54	68
378	18	45	46	47	78
379	7	4	3	1	93
379	8	4	3	1	93
380	27	114	103	102	115
381	27	30	7	6	32
382	18	99	98	97	125
383	27	79	46	45	81
384	35	140	139	138	170
384	36	140	139	138	170
385	30	46	47	48	49
386	18	138	137	136	174
387	18	148	147	146	160
388	27	180	133	132	182
389	14	140	141	142	145
390	34	138	139	140	167
391	18	135	134	133	179
392	15	145	146	147	148
392	16	145	146	147	148
392	17	145	146	147	148
393	27	156	148	147	158
394	18	103	102	101	117
395	27	125	97	96	127
396	7	17	14	15	39
396	8	17	14	15	39
397	27	86	43	42	88
398	27	161	146	145	163
399	15	41	42	43	44
399	16	41	42	43	44
399	17	41	42	43	44
400	27	80	46	45	82
401	18	13	12	11	22
402	18	56	55	54	68
403	27	154	149	148	157
404	27	59	58	57	63
405	5	93	95	96	127
405	6	93	95	96	127
406	27	121	99	98	124
407	31	76	48	47	78
408	27	175	135	134	178
409	5	5	4	3	38
409	6	5	4	3	38
410	14	103	104	105	106
411	18	53	51	50	73
412	28	130	131	132	181