Title

184 atoms
183 bonds
348 angles
629 dihedrals
30 impropers

12 atom types
17 bond types
10 angle types
42 dihedral types
3 improper types
-5.921999931 94.07800007 xlo xhi
-5.191999912 94.80800009 ylo yhi
-15.77000046 84.22999954 zlo zhi
0.0 0.0 0.0 xy xz yz

Masses

1	12.01078
2	15.99943
3	14.00672
4	12.01078
5	1.007947
6	1.007947
7	1.007947
8	15.99943
9	1.007947
10	12.01078
11	15.99943
12	1.007947


Pair Coeffs

1	0.086879315	3.4806469
2	0.2102061	3.0398122
3	0.16769152	3.206876
4	0.10884061	3.3795318
5	0.014090815	1.1034277
6	0.016409246	2.5832257
7	0.015779483	2.6445434
8	0.16846514	3.0251065
9	0.015611343	2.5725815
10	0.21	3.3996695
11	0.20947353	2.99716
12	1.2326e-05	0.53453923

Bond Coeffs

1 harmonic	582.698766451	1.225198386222
2 harmonic	492.76746816345	1.381897776683
3 harmonic	279.1350963404	1.454628925034
4 harmonic	352.0565580496	1.450098586273
5 harmonic	505.144496193	1.019481865027
6 harmonic	264.62148576755	1.52190126495
7 harmonic	370.04670688625	1.093899492634
8 harmonic	301.15400723785	1.345741232799
9 harmonic	366.7408841747	1.425895053732
10 harmonic	289.73813263395	1.498646816465
11 harmonic	399.1592953295	1.371688562017
12 harmonic	397.2545789619	1.085358495916
13 harmonic	300.03137914615	1.451203938761
14 harmonic	366.34047229585	1.464762957261
15 harmonic	602.81384337	1.196112346392
16 harmonic	329.96998057905	1.427343958716
17 harmonic	543.5267831885	0.9716763312559


Angle Coeffs

1 harmonic	55.42182150775	117.3465570514
2 harmonic	63.44422595415	115.5071327674
3 harmonic	57.8982893754	126.8062420451
4 harmonic	53.20531626545	116.5475862634
5 harmonic	65.09061609600001	110.3538806181
6 harmonic	201.41175231035	127.4691416191
7 harmonic	48.776492647595	115.6030999533
8 harmonic	34.066775159195	129.1835929926
9 harmonic	55.07882548015	112.8714009681
10 harmonic	33.56981613361	180


Dihedral Coeffs

1 fourier 1	-0.1488678166443	4	180
2 fourier 1	-0.1230328948768	3	180
3 fourier 1	0.2939295466901	2	0
4 fourier 1	-0.3024127022865	1	0
5 fourier 1	0.182238503271	2	0
6 fourier 1	0.02972342374561	3	0
7 fourier 1	1.809047390003	2	180
8 fourier 1	-0.04816277792592	1	0
9 fourier 1	3.101948770557	2	180
10 fourier 1	-0.4252153282372	1	0
11 fourier 1	2.348375642009	2	180
12 fourier 1	1.256156174911	1	0
13 fourier 1	0.9974165607242	2	180
14 fourier 1	0.1155372516788	3	0
15 fourier 1	0.09223874044423	3	0
16 fourier 1	0.3159935921949	2	180
17 fourier 1	0.3247796806857	1	180
18 fourier 1	0.1040663847541	3	0
19 fourier 1	2.779853741805	2	180
20 fourier 1	0.1918272375143	3	0
21 fourier 1	0.9202179876409	1	180
22 fourier 1	0.0473758381877	3	0
23 fourier 1	0.4860993122944	2	180
24 fourier 1	0.8916986138746	1	0
25 fourier 1	1.163809172478	2	180
26 fourier 1	0.1679186987369	1	180
27 fourier 1	0.1911926717192	3	0
28 fourier 1	0.1115525666802	3	0
29 fourier 1	0.3432490222662	1	0
30 fourier 1	-0.3703352413219	2	0
31 fourier 1	0.02664938770063	3	0
32 fourier 1	5.082239018622	2	180
33 fourier 1	1.654695451548	1	180
34 fourier 1	5.294842998052	2	180
35 fourier 1	0.2962286176719	3	180
36 fourier 1	0.007435022645929	1	0
37 fourier 1	0.457973137376	1	0
38 fourier 1	-1.382973039546	1	0
39 fourier 1	0	1	0
40 fourier 1	0.3445382149273	3	0
41 fourier 1	0.1364556373303	1	0
42 fourier 1	0.3026390167484	3	0


Improper Coeffs

1 0.3333333333333333	-1	2
2 0.3666666666666667	-1	2
3 3.5	-1	2


Atoms

1	1	1	0.53837299	-4.8540001	2.108	-1.138
2	1	2	-0.71620703	-5.5139999	2.6600001	-0.21799999
3	1	3	-0.52790999	-4.4949999	0.72399998	-1.057
4	1	4	0.027683999	-4.848	-0.121	0.082999997
5	1	4	-0.148451	-3.99	0.208	1.3150001
6	1	4	-0.14370801	-2.4749999	0.1	1.0650001
7	1	4	-0.14330301	-2.026	-1.34	0.759
8	1	4	-0.142058	-0.49700001	-1.493	0.76800001
9	1	4	-0.142058	0.176	-0.75	-0.39899999
10	1	4	-0.14330301	1.661	-1.117	-0.55800003
11	1	4	-0.14370801	2.53	-0.56400001	0.58499998
12	1	4	-0.14717799	4.0250001	-0.87900001	0.391
13	1	4	0.021752	4.7160001	0.029999999	-0.63800001
14	1	3	-0.472442	4.8169999	1.409	-0.15899999
15	1	1	0.78065097	5.3839998	2.4430001	-0.96700001
16	1	2	-0.63604897	5.8080001	2.1960001	-2.128
17	1	5	0.31957999	4.4910002	1.664	0.801
18	1	6	0.047324002	5.7399998	-0.36000001	-0.82099998
19	1	6	0.047324002	4.1700001	0.0080000004	-1.604
20	1	7	0.081206001	4.145	-1.9400001	0.079999998
21	1	7	0.081206001	4.546	-0.76899999	1.367
22	1	7	0.080200002	2.2119999	-1.036	1.539
23	1	7	0.080200002	2.375	0.53100002	0.685
24	1	7	0.079460002	1.77	-2.2219999	-0.61799997
25	1	7	0.079460002	2.007	-0.69400001	-1.524
26	1	7	0.079460002	0.082999997	0.34799999	-0.259
27	1	7	0.079460002	-0.34400001	-1.016	-1.345
28	1	7	0.079460002	-0.098999999	-1.127	1.739
29	1	7	0.079460002	-0.26199999	-2.5780001	0.69300002
30	1	7	0.079460002	-2.4449999	-2.0220001	1.5319999
31	1	7	0.079460002	-2.4200001	-1.663	-0.228
32	1	7	0.080200002	-1.954	0.456	1.98
33	1	7	0.080200002	-2.188	0.77600002	0.23199999
34	1	7	0.081206001	-4.2189999	1.242	1.65
35	1	7	0.081206001	-4.277	-0.472	2.1459999
36	1	6	0.043855999	-4.7150002	-1.189	-0.192
37	1	6	0.043855999	-5.9219999	0.017999999	0.331
38	1	5	0.31299201	-4.0040002	0.29100001	-1.8710001
39	1	8	-0.50303102	5.4489999	3.4089999	-0.59500003
40	1	4	0.111182	6.21	4.1490002	-1.513
41	1	4	-0.141257	7.6950002	4.1139998	-1.138
42	1	4	-0.142223	8.2939997	2.71	-1.295
43	1	4	-0.143388	9.7950001	2.714	-0.98100001
44	1	4	-0.141958	10.394	1.311	-1.13
45	1	4	-0.13485301	11.901	1.324	-0.83700001
46	1	4	-0.132852	12.519	-0.086999997	-0.82200003
47	1	4	-0.089417003	12.484	-0.80699998	-2.1819999
48	1	1	-0.079828002	13.176	-0.029999999	-3.2690001
49	1	1	-0.081115	14.503	0.15899999	-3.263
50	1	4	-0.113443	15.169	0.93599999	-4.3709998
51	1	4	0.053422999	16.705	1.048	-4.2459998
52	1	8	-0.139543	17.099001	1.479	-2.964
53	1	4	-0.148333	17.493999	-0.192	-4.744
54	1	4	-0.13756999	17.091	-1.534	-4.0999999
55	1	4	-0.142975	18.027	-2.684	-4.5079999
56	1	4	-0.14692201	17.872999	-3.0780001	-5.987
57	1	4	-0.140919	18.611	-4.382	-6.3280001
58	1	4	-0.128268	20.131001	-4.2290001	-6.2849998
59	1	7	0.045515001	20.478001	-4.0500002	-5.2470002
60	1	7	0.045515001	20.457001	-3.3889999	-6.9349999
61	1	7	0.045515001	20.606001	-5.1630001	-6.651
62	1	7	0.069833003	18.299	-5.1919999	-5.6350002
63	1	7	0.069833003	18.320999	-4.6900001	-7.3559999
64	1	7	0.080320999	16.794001	-3.227	-6.2129998
65	1	7	0.080320999	18.247	-2.263	-6.6430001
66	1	7	0.079460002	17.784	-3.5639999	-3.8729999
67	1	7	0.079460002	19.079	-2.395	-4.2950001
68	1	7	0.080528997	16.049999	-1.7970001	-4.3839998
69	1	7	0.080528997	17.134001	-1.45	-2.9949999
70	1	7	0.089901	17.348	-0.26699999	-5.8429999
71	1	7	0.089901	18.576	-0.0099999998	-4.566
72	1	6	0.083940998	16.997	1.8660001	-4.941
73	1	7	0.100152	14.742	1.9630001	-4.3709998
74	1	7	0.100152	14.915	0.47099999	-5.3499999
75	1	9	0.13338301	15.09	-0.25600001	-2.451
76	1	9	0.129434	12.577	0.36500001	-4.085
77	1	7	0.076711997	11.432	-0.99800003	-2.48
78	1	7	0.076711997	12.972	-1.8	-2.0780001
79	1	7	0.079121999	13.574	-0.0070000002	-0.48199999
80	1	7	0.079121999	11.986	-0.71100003	-0.072999999
81	1	7	0.077587999	12.425	1.962	-1.581
82	1	7	0.077587999	12.069	1.777	0.164
83	1	7	0.079460002	9.8850002	0.61699998	-0.426
84	1	7	0.079460002	10.22	0.95700002	-2.1689999
85	1	7	0.079460002	10.314	3.411	-1.676
86	1	7	0.079460002	9.9510002	3.073	0.059999999
87	1	7	0.081175998	7.7800002	2.0079999	-0.602
88	1	7	0.081175998	8.1370001	2.3559999	-2.3380001
89	1	7	0.084972002	8.2410002	4.8210001	-1.8
90	1	7	0.084972002	7.8150001	4.46	-0.088
91	1	6	0.077532999	6.0609999	3.779	-2.5550001
92	1	6	0.077532999	5.862	5.2030001	-1.484
93	1	1	0.53837299	-4.5609999	2.687	-2.003
94	1	2	-0.71620703	-4.8740001	3.905	-2.0680001
95	1	3	-0.52790999	-3.8310001	2.0580001	-3.062
96	1	4	0.027683999	-3.3940001	2.776	-4.2589998
97	1	4	-0.148451	-2.207	3.698	-3.954
98	1	4	-0.14370801	-0.97299999	2.9059999	-3.4909999
99	1	4	-0.14330301	0.27200001	3.793	-3.3329999
100	1	4	-0.142058	0.15899999	4.763	-2.1440001
101	1	4	-0.142058	1.49	5.46	-1.823
102	1	4	-0.14312001	1.9220001	6.4419999	-2.9260001
103	1	4	-0.139314	3.1040001	7.3260002	-2.4990001
104	1	4	-0.124767	4.415	6.533	-2.362
105	1	4	0.181178	5.6110001	7.4520001	-2.099
106	1	3	-0.68071198	5.4899998	8.0839996	-0.78899997
107	1	10	0.59107798	5.4660001	9.3479996	-0.65100002
108	1	2	-0.51321602	5.4419999	10.578	-0.51800001
109	1	6	0.024018001	5.6919999	8.2110004	-2.9119999
110	1	6	0.024018001	6.54	6.8439999	-2.1129999
111	1	7	0.074886002	4.605	5.9699998	-3.3010001
112	1	7	0.074886002	4.336	5.802	-1.529
113	1	7	0.078933001	2.8629999	7.8340001	-1.54
114	1	7	0.078933001	3.24	8.1140003	-3.2720001
115	1	7	0.079460002	2.194	5.8870001	-3.849
116	1	7	0.079460002	1.068	7.1100001	-3.1719999
117	1	7	0.079460002	1.364	6.0170002	-0.86900002
118	1	7	0.079460002	2.277	4.691	-1.664
119	1	7	0.079460002	-0.61699998	5.5320001	-2.348
120	1	7	0.079460002	-0.15700001	4.1960001	-1.2410001
121	1	7	0.079460002	0.442	4.3590002	-4.2740002
122	1	7	0.079460002	1.148	3.1270001	-3.175
123	1	7	0.080200002	-0.74299997	2.1240001	-4.2480001
124	1	7	0.080200002	-1.188	2.391	-2.53
125	1	7	0.081206001	-2.5050001	4.4320002	-3.1760001
126	1	7	0.081206001	-1.957	4.2620001	-4.8790002
127	1	6	0.043855999	-3.0999999	2.0439999	-5.0419998
128	1	6	0.043855999	-4.2389998	3.3740001	-4.665
129	1	5	0.31299201	-3.652	1.031	-2.9979999
130	1	8	-0.180035	17.167	0.68800002	-2.368
131	1	4	0.035172999	18.503	0.60699999	-1.949
132	1	4	-0.14726	19.315001	-0.28200001	-2.895
133	1	4	-0.140956	19.462	0.345	-4.2880001
134	1	4	-0.14333799	20.336	-0.52899998	-5.1950002
135	1	4	-0.141958	20.479	0.092	-6.5890002
136	1	4	-0.13485301	21.372999	-0.77499998	-7.4879999
137	1	4	-0.132852	21.421	-0.27399999	-8.9429998
138	1	4	-0.089417003	22.073999	1.109	-9.1149998
139	1	1	-0.079828002	23.481001	1.158	-8.5819998
140	1	1	-0.072043002	24.478001	0.47600001	-9.1619997
141	1	4	-0.13680901	25.878	0.55199999	-8.6079998
142	1	4	0.099535003	26.927999	-0.26300001	-9.3979998
143	1	11	-0.69196302	26.503	-1.585	-9.6300001
144	1	12	0.38807699	25.954	-1.604	-10.453
145	1	4	-0.170605	27.475	0.43599999	-10.671
146	1	4	-0.132992	26.408001	0.89099997	-11.686
147	1	4	-0.142975	27.025999	1.411	-12.994
148	1	4	-0.14692201	27.76	2.7520001	-12.81
149	1	4	-0.140919	28.153	3.395	-14.149
150	1	4	-0.128268	29.254999	2.6240001	-14.875
151	1	7	0.045515001	28.884001	1.6339999	-15.211
152	1	7	0.045515001	30.134001	2.484	-14.211
153	1	7	0.045515001	29.576	3.1960001	-15.77
154	1	7	0.069833003	27.261999	3.4820001	-14.809
155	1	7	0.069833003	28.521999	4.4239998	-13.948
156	1	7	0.080320999	27.093	3.461	-12.273
157	1	7	0.080320999	28.672001	2.609	-12.191
158	1	7	0.079460002	26.204	1.548	-13.73
159	1	7	0.079460002	27.721001	0.64600003	-13.403
160	1	7	0.080528997	25.773001	1.687	-11.243
161	1	7	0.080528997	25.75	0.037	-11.95
162	1	7	0.093023002	28.056999	1.325	-10.346
163	1	7	0.093023002	28.184999	-0.25799999	-11.17
164	1	6	0.069372997	27.806999	-0.34400001	-8.7200003
165	1	7	0.101537	25.853001	0.17	-7.5640001
166	1	7	0.101537	26.198999	1.6160001	-8.5640001
167	1	9	0.13338301	24.261999	-0.12800001	-10.037
168	1	9	0.129434	23.684	1.781	-7.7150002
169	1	7	0.076711997	21.461	1.881	-8.6049995
170	1	7	0.076711997	22.087	1.372	-10.195
171	1	7	0.079121999	21.979	-1.017	-9.5539999
172	1	7	0.079121999	20.386999	-0.235	-9.3509998
173	1	7	0.077587999	22.4	-0.82200003	-7.066
174	1	7	0.077587999	20.972	-1.812	-7.5
175	1	7	0.079460002	19.472	0.192	-7.052
176	1	7	0.079460002	20.926001	1.104	-6.4850001
177	1	7	0.079460002	21.344	-0.64099997	-4.7379999
178	1	7	0.079460002	19.875999	-1.538	-5.2870002
179	1	7	0.081347004	18.458	0.45899999	-4.7509999
180	1	7	0.081347004	19.924999	1.352	-4.191
181	1	7	0.085972004	20.323999	-0.435	-2.4530001
182	1	7	0.085972004	18.82	-1.275	-2.9790001
183	1	6	0.077312	18.965	1.618	-1.869
184	1	6	0.077312	18.521999	0.155	-0.93400002

Bonds

1	1	1	2
2	2	1	3
3	3	1	93
4	4	3	4
5	5	3	38
6	6	4	5
7	7	4	36
8	7	4	37
9	6	5	6
10	7	5	34
11	7	5	35
12	6	6	7
13	7	6	32
14	7	6	33
15	6	7	8
16	7	7	30
17	7	7	31
18	6	8	9
19	7	8	28
20	7	8	29
21	6	9	10
22	7	9	26
23	7	9	27
24	6	10	11
25	7	10	24
26	7	10	25
27	6	11	12
28	7	11	22
29	7	11	23
30	6	12	13
31	7	12	20
32	7	12	21
33	4	13	14
34	7	13	18
35	7	13	19
36	2	14	15
37	5	14	17
38	1	15	16
39	8	15	39
40	9	39	40
41	6	40	41
42	7	40	91
43	7	40	92
44	6	41	42
45	7	41	89
46	7	41	90
47	6	42	43
48	7	42	87
49	7	42	88
50	6	43	44
51	7	43	85
52	7	43	86
53	6	44	45
54	7	44	83
55	7	44	84
56	6	45	46
57	7	45	81
58	7	45	82
59	6	46	47
60	7	46	79
61	7	46	80
62	10	47	48
63	7	47	77
64	7	47	78
65	11	48	49
66	12	48	76
67	10	49	50
68	12	49	75
69	6	50	51
70	7	50	73
71	7	50	74
72	9	51	52
73	6	51	53
74	7	51	72
75	13	52	130
76	6	53	54
77	7	53	70
78	7	53	71
79	6	54	55
80	7	54	68
81	7	54	69
82	6	55	56
83	7	55	66
84	7	55	67
85	6	56	57
86	7	56	64
87	7	56	65
88	6	57	58
89	7	57	62
90	7	57	63
91	7	58	59
92	7	58	60
93	7	58	61
94	1	93	94
95	2	93	95
96	4	95	96
97	5	95	129
98	6	96	97
99	7	96	127
100	7	96	128
101	6	97	98
102	7	97	125
103	7	97	126
104	6	98	99
105	7	98	123
106	7	98	124
107	6	99	100
108	7	99	121
109	7	99	122
110	6	100	101
111	7	100	119
112	7	100	120
113	6	101	102
114	7	101	117
115	7	101	118
116	6	102	103
117	7	102	115
118	7	102	116
119	6	103	104
120	7	103	113
121	7	103	114
122	6	104	105
123	7	104	111
124	7	104	112
125	14	105	106
126	7	105	109
127	7	105	110
128	15	106	107
129	1	107	108
130	9	130	131
131	6	131	132
132	7	131	183
133	7	131	184
134	6	132	133
135	7	132	181
136	7	132	182
137	6	133	134
138	7	133	179
139	7	133	180
140	6	134	135
141	7	134	177
142	7	134	178
143	6	135	136
144	7	135	175
145	7	135	176
146	6	136	137
147	7	136	173
148	7	136	174
149	6	137	138
150	7	137	171
151	7	137	172
152	10	138	139
153	7	138	169
154	7	138	170
155	11	139	140
156	12	139	168
157	10	140	141
158	12	140	167
159	6	141	142
160	7	141	165
161	7	141	166
162	16	142	143
163	6	142	145
164	7	142	164
165	17	143	144
166	6	145	146
167	7	145	162
168	7	145	163
169	6	146	147
170	7	146	160
171	7	146	161
172	6	147	148
173	7	147	158
174	7	147	159
175	6	148	149
176	7	148	156
177	7	148	157
178	6	149	150
179	7	149	154
180	7	149	155
181	7	150	151
182	7	150	152
183	7	150	153

Angles

1	4	12	13	19
2	7	89	41	90
3	4	131	132	133
4	4	102	103	114
5	4	97	98	124
6	4	14	13	18
7	4	145	146	147
8	4	54	55	67
9	4	44	45	81
10	4	103	104	112
11	4	6	7	30
12	4	53	54	69
13	4	12	11	23
14	6	16	15	39
15	4	142	141	165
16	4	142	145	146
17	4	7	8	28
18	4	56	57	63
19	4	145	146	160
20	4	5	6	7
21	4	135	136	173
22	4	3	4	37
23	4	97	96	128
24	4	13	12	21
25	7	22	11	23
26	4	4	5	6
27	4	100	101	102
28	4	103	104	105
29	4	44	43	85
30	4	50	51	52
31	4	39	40	91
32	4	53	54	55
33	4	4	5	35
34	5	52	130	131
35	4	58	57	63
36	4	5	4	37
37	4	40	41	89
38	4	40	41	42
39	4	133	132	181
40	7	151	150	153
41	4	102	101	118
42	4	138	137	171
43	4	8	7	31
44	4	106	105	109
45	4	133	134	177
46	4	8	9	27
47	4	12	13	18
48	1	93	95	96
49	4	50	51	72
50	4	98	97	126
51	4	134	133	179
52	4	130	131	132
53	4	147	148	157
54	2	15	14	17
55	4	103	102	116
56	4	142	145	163
57	4	98	99	122
58	4	134	135	175
59	4	102	103	113
60	4	97	98	123
61	3	1	93	94
62	4	130	131	183
63	3	3	1	93
64	4	48	47	78
65	7	28	8	29
66	7	77	47	78
67	4	43	44	84
68	4	5	6	33
69	4	103	104	111
70	4	41	40	92
71	7	123	98	124
72	3	14	15	16
73	4	141	142	145
74	8	139	140	167
75	4	53	54	68
76	7	152	150	153
77	4	139	138	169
78	7	79	46	80
79	7	162	145	163
80	4	147	146	161
81	7	169	138	170
82	7	30	7	31
83	4	41	42	43
84	4	44	45	46
85	4	148	147	159
86	8	141	140	167
87	4	8	9	10
88	4	148	149	155
89	4	146	147	148
90	4	104	103	114
91	4	58	57	62
92	4	42	41	90
93	4	5	4	36
94	4	47	46	80
95	4	53	51	72
96	7	59	58	61
97	4	104	105	106
98	4	10	9	27
99	4	54	55	56
100	4	9	8	29
101	4	11	12	13
102	7	151	150	152
103	4	51	53	54
104	7	24	10	25
105	4	11	12	20
106	4	9	10	25
107	4	8	9	26
108	4	57	58	61
109	7	66	55	67
110	7	91	40	92
111	4	45	44	83
112	4	52	51	53
113	7	109	105	110
114	4	147	148	156
115	4	101	102	103
116	4	142	145	162
117	4	45	46	79
118	8	140	139	168
119	4	104	105	110
120	3	48	49	50
121	4	140	141	166
122	4	99	100	120
123	4	54	53	71
124	4	46	45	81
125	7	68	54	69
126	4	41	42	87
127	4	136	135	176
128	4	9	10	11
129	4	131	132	182
130	4	46	47	77
131	4	41	40	91
132	4	141	142	164
133	7	83	44	84
134	7	60	58	61
135	10	106	107	108
136	4	42	43	85
137	4	55	56	65
138	4	132	133	180
139	7	117	101	118
140	4	147	148	149
141	7	87	42	88
142	4	97	98	99
143	4	150	149	154
144	4	99	98	124
145	4	146	145	162
146	3	14	15	39
147	4	49	50	73
148	4	136	137	172
149	4	146	147	158
150	4	100	101	118
151	4	148	149	154
152	4	105	104	112
153	4	12	13	14
154	7	111	104	112
155	4	100	99	122
156	7	115	102	116
157	4	137	136	174
158	4	95	96	128
159	4	42	41	89
160	7	36	4	37
161	4	133	134	135
162	4	55	54	69
163	4	137	138	170
164	4	47	46	79
165	7	59	58	60
166	4	101	102	116
167	4	10	9	26
168	4	43	42	88
169	4	6	5	35
170	4	7	6	32
171	7	64	56	65
172	4	96	97	126
173	4	135	134	177
174	4	51	53	71
175	1	13	14	15
176	4	55	56	64
177	4	42	43	44
178	7	127	96	128
179	4	149	150	153
180	4	136	137	138
181	4	104	105	109
182	4	99	100	119
183	4	54	53	70
184	4	101	100	120
185	4	54	55	66
186	7	125	97	126
187	7	177	134	178
188	4	56	55	67
189	9	105	106	107
190	4	143	142	145
191	7	173	136	174
192	4	55	56	57
193	7	154	149	155
194	7	81	45	82
195	4	101	102	115
196	4	12	11	22
197	4	52	51	72
198	4	149	148	157
199	4	56	57	62
200	4	14	13	19
201	4	3	4	36
202	4	97	96	127
203	4	13	12	20
204	7	179	133	180
205	4	51	50	74
206	4	44	45	82
207	4	136	137	171
208	4	103	102	115
209	7	156	148	157
210	4	100	101	117
211	4	4	5	34
212	7	183	131	184
213	2	93	95	129
214	4	55	54	68
215	4	137	138	169
216	7	32	6	33
217	5	15	39	40
218	4	43	42	87
219	8	138	139	168
220	4	140	141	142
221	5	51	52	130
222	4	102	101	117
223	4	8	7	30
224	4	51	53	70
225	4	50	51	53
226	4	98	97	125
227	2	4	3	38
228	4	149	150	152
229	4	98	99	121
230	8	48	49	75
231	7	70	53	71
232	4	133	132	182
233	4	48	47	77
234	4	6	7	8
235	4	143	142	164
236	4	43	44	83
237	4	138	137	172
238	4	134	135	136
239	7	85	43	86
240	4	5	6	32
241	4	56	55	66
242	4	133	134	178
243	7	62	57	63
244	4	148	149	150
245	4	57	56	65
246	4	134	133	180
247	4	95	96	97
248	8	50	49	75
249	4	134	135	176
250	4	147	146	160
251	4	149	148	156
252	3	2	1	3
253	3	1	93	95
254	4	145	142	164
255	4	130	131	184
256	4	10	11	23
257	4	51	50	73
258	4	137	138	139
259	7	20	12	21
260	4	148	147	158
261	4	11	10	25
262	7	113	103	114
263	4	104	103	113
264	4	98	99	100
265	4	139	138	170
266	7	165	141	166
267	4	45	46	47
268	4	132	131	184
269	3	139	140	141
270	4	9	8	28
271	4	57	56	64
272	4	9	10	24
273	4	135	136	137
274	4	57	58	60
275	3	138	139	140
276	7	119	100	120
277	4	149	150	151
278	7	34	5	35
279	4	99	100	101
280	4	140	141	165
281	4	56	57	58
282	4	3	4	5
283	4	136	135	175
284	4	131	132	181
285	4	11	12	21
286	2	13	14	17
287	7	121	99	122
288	4	141	142	143
289	4	45	44	84
290	4	132	133	179
291	4	45	46	80
292	4	102	103	104
293	7	171	137	172
294	2	1	3	38
295	4	46	45	82
296	8	49	48	76
297	4	99	98	123
298	4	41	42	88
299	4	10	11	22
300	7	26	9	27
301	7	73	50	74
302	4	46	47	78
303	7	175	135	176
304	7	158	147	159
305	4	6	7	31
306	4	11	10	24
307	4	105	104	111
308	7	18	13	19
309	4	7	8	9
310	4	39	40	41
311	4	100	99	121
312	4	42	43	86
313	3	47	48	49
314	4	137	136	173
315	4	95	96	127
316	8	47	48	76
317	4	142	141	166
318	4	132	131	183
319	4	7	8	29
320	4	150	149	155
321	7	160	146	161
322	2	96	95	129
323	4	145	146	161
324	4	135	136	174
325	1	1	3	4
326	4	6	5	34
327	4	96	97	98
328	7	181	132	182
329	4	96	97	125
330	4	132	133	134
331	4	146	145	163
332	4	49	50	74
333	4	44	43	86
334	4	146	147	159
335	4	39	40	92
336	4	57	58	59
337	3	2	1	93
338	4	40	41	90
339	4	10	11	12
340	4	7	6	33
341	5	142	143	144
342	4	101	100	119
343	4	135	134	178
344	4	43	44	45
345	4	46	47	48
346	4	49	50	51
347	3	94	93	95
348	4	106	105	110

Dihedrals

1	18	56	57	58	61
2	27	117	101	100	119
3	18	13	12	11	23
4	15	6	7	8	9
4	16	6	7	8	9
4	17	6	7	8	9
5	27	27	9	8	29
6	27	81	45	44	83
7	18	7	6	5	34
8	18	54	53	51	72
9	15	100	101	102	103
9	16	100	101	102	103
9	17	100	101	102	103
10	18	46	45	44	83
11	28	39	40	41	90
11	29	39	40	41	90
12	15	98	99	100	101
12	16	98	99	100	101
12	17	98	99	100	101
13	14	139	138	137	172
14	15	145	146	147	148
14	16	145	146	147	148
14	17	145	146	147	148
15	15	147	148	149	150
15	16	147	148	149	150
15	17	147	148	149	150
16	23	16	15	14	17
16	24	16	15	14	17
17	18	142	145	146	161
18	31	76	48	47	77
19	18	6	7	8	29
20	5	97	96	95	129
20	6	97	96	95	129
21	27	161	146	145	163
22	14	106	105	104	111
23	31	165	141	140	167
24	27	88	42	41	90
25	5	1	3	4	36
25	6	1	3	4	36
26	18	8	7	6	32
27	27	155	149	148	157
28	15	96	97	98	99
28	16	96	97	98	99
28	17	96	97	98	99
29	18	45	46	47	78
30	18	133	134	135	176
31	18	149	148	147	158
32	27	20	12	11	23
33	27	118	101	100	119
34	31	74	50	49	75
35	27	176	135	134	178
36	28	143	142	141	166
36	29	143	142	141	166
37	18	147	148	149	154
38	27	89	41	40	91
39	18	104	103	102	116
40	18	41	42	43	85
41	22	52	130	131	184
42	27	112	104	103	114
43	27	83	44	43	85
44	31	168	139	138	170
45	27	169	138	137	171
46	18	134	133	132	181
47	27	111	104	103	113
48	18	137	136	135	176
49	38	107	106	105	110
50	27	159	147	146	160
51	27	33	6	5	34
52	18	135	136	137	171
53	27	34	5	4	36
54	27	160	146	145	163
55	18	51	53	54	69
56	27	125	97	96	128
57	27	23	11	10	24
58	27	25	10	9	26
59	18	150	149	148	156
60	27	115	102	101	118
61	27	110	105	104	111
62	18	44	43	42	87
63	18	99	100	101	118
64	18	100	101	102	116
65	27	179	133	132	181
66	15	142	145	146	147
66	16	142	145	146	147
66	17	142	145	146	147
67	18	42	43	44	84
68	31	73	50	49	75
69	15	134	135	136	137
69	16	134	135	136	137
69	17	134	135	136	137
70	27	61	58	57	62
71	27	35	5	4	37
72	27	121	99	98	124
73	27	175	135	134	177
74	18	102	103	104	112
75	18	11	12	13	19
76	7	13	14	15	16
76	8	13	14	15	16
77	18	96	97	98	123
78	18	138	137	136	173
79	18	55	56	57	62
80	27	85	43	42	88
81	18	56	57	58	60
82	27	32	6	5	35
83	18	104	103	102	115
84	18	13	12	11	22
85	1	12	13	14	15
85	2	12	13	14	15
85	3	12	13	14	15
85	4	12	13	14	15
86	13	3	1	93	94
87	27	27	9	8	28
88	18	145	146	147	158
89	28	39	40	41	89
89	29	39	40	41	89
90	27	77	47	46	80
91	15	41	42	43	44
91	16	41	42	43	44
91	17	41	42	43	44
92	31	166	141	140	167
93	14	39	40	41	42
94	14	136	137	138	139
95	18	99	98	97	126
96	18	142	145	146	160
97	18	6	7	8	28
98	31	142	141	140	167
99	18	42	41	40	92
100	27	65	56	55	66
101	15	102	103	104	105
101	16	102	103	104	105
101	17	102	103	104	105
102	27	64	56	55	67
103	28	130	131	132	182
103	29	130	131	132	182
104	18	45	46	47	77
105	22	52	130	131	132
106	18	133	134	135	175
107	18	136	137	138	170
108	27	176	135	134	177
109	28	143	142	141	165
109	29	143	142	141	165
110	27	72	51	50	74
111	22	52	130	131	183
112	27	126	97	96	128
113	18	146	147	148	157
114	27	68	54	53	71
115	18	40	41	42	88
116	5	93	95	96	128
116	6	93	95	96	128
117	18	7	8	9	27
118	18	137	136	135	175
119	38	107	106	105	109
120	27	84	44	43	86
121	27	30	7	6	33
122	27	174	136	135	176
123	27	160	146	145	162
124	27	170	138	137	172
125	27	125	97	96	127
126	30	48	49	50	51
127	30	46	47	48	49
128	14	52	51	53	54
129	31	46	47	48	76
130	18	134	135	136	174
131	28	143	142	145	163
131	29	143	142	145	163
132	18	43	44	45	82
133	27	115	102	101	117
134	34	47	48	49	75
135	18	99	100	101	117
136	18	56	55	54	68
137	5	17	14	13	19
137	6	17	14	13	19
138	18	9	10	11	23
139	15	50	51	53	54
139	16	50	51	53	54
139	17	50	51	53	54
140	18	8	9	10	25
141	27	116	102	101	118
142	27	67	55	54	69
143	27	66	55	54	69
144	27	35	5	4	36
145	27	19	13	12	21
146	27	79	46	45	82
147	18	9	8	7	31
148	27	18	13	12	21
149	27	121	99	98	123
150	18	102	103	104	111
151	18	11	12	13	18
152	27	85	43	42	87
153	27	151	150	149	155
154	27	32	6	5	34
155	22	15	39	40	92
156	27	181	132	131	184
157	27	158	147	146	160
158	35	49	48	47	77
158	36	49	48	47	77
159	32	138	139	140	141
159	33	138	139	140	141
160	27	82	45	44	83
161	27	63	57	56	65
162	27	109	105	104	112
163	18	99	98	97	125
164	27	154	149	148	156
165	18	148	147	146	160
166	15	7	8	9	10
166	16	7	8	9	10
166	17	7	8	9	10
167	18	42	41	40	91
168	19	14	15	39	40
169	7	13	14	15	39
169	8	13	14	15	39
170	27	22	11	10	25
171	18	105	104	103	114
172	27	87	42	41	90
173	22	53	51	52	130
174	13	2	1	93	95
175	27	62	57	56	64
176	27	124	98	97	125
177	18	146	145	142	164
178	15	131	132	133	134
178	16	131	132	133	134
178	17	131	132	133	134
179	18	12	11	10	25
180	27	64	56	55	66
181	27	153	150	149	155
182	14	140	141	142	143
183	27	152	150	149	155
184	18	136	137	138	169
185	18	103	104	105	110
186	27	180	133	132	181
187	18	45	44	43	86
188	18	53	51	50	74
189	18	44	45	46	79
190	15	4	5	6	7
190	16	4	5	6	7
190	17	4	5	6	7
191	14	48	47	46	79
192	27	163	145	142	164
193	27	72	51	50	73
194	15	97	98	99	100
194	16	97	98	99	100
194	17	97	98	99	100
195	27	60	58	57	63
196	27	126	97	96	127
197	18	10	9	8	29
198	18	146	147	148	156
199	18	6	5	4	36
200	27	120	100	99	122
201	27	162	145	142	164
202	18	100	99	98	124
203	27	59	58	57	63
204	18	7	8	9	26
205	18	101	100	99	122
206	27	84	44	43	85
207	14	49	50	51	53
208	27	30	7	6	32
209	18	98	97	96	127
210	15	55	56	57	58
210	16	55	56	57	58
210	17	55	56	57	58
211	27	170	138	137	171
212	27	78	47	46	79
213	18	134	135	136	173
214	27	24	10	9	27
215	9	94	93	95	96
215	10	94	93	95	96
216	18	102	101	100	119
217	28	52	51	53	71
217	29	52	51	53	71
218	14	14	13	12	20
219	31	137	138	139	168
220	27	26	9	8	28
221	15	5	6	7	8
221	16	5	6	7	8
221	17	5	6	7	8
222	18	43	44	45	81
223	15	101	102	103	104
223	16	101	102	103	104
223	17	101	102	103	104
224	5	17	14	13	18
224	6	17	14	13	18
225	18	133	132	131	184
226	15	146	147	148	149
226	16	146	147	148	149
226	17	146	147	148	149
227	18	132	133	134	177
228	18	50	51	53	71
229	14	95	96	97	126
230	27	66	55	54	68
231	25	16	15	39	40
231	26	16	15	39	40
232	27	79	46	45	81
233	27	18	13	12	20
234	34	138	139	140	167
235	15	51	53	54	55
235	16	51	53	54	55
235	17	51	53	54	55
236	27	151	150	149	154
237	18	148	149	150	153
238	22	15	39	40	91
239	27	122	99	98	124
240	27	164	142	141	166
241	27	69	54	53	71
242	14	143	142	145	146
243	27	86	43	42	88
244	14	139	138	137	171
245	18	103	102	101	118
246	14	3	4	5	6
247	18	47	46	45	82
248	18	4	5	6	33
249	27	171	137	136	174
250	27	80	46	45	82
251	1	93	95	96	97
251	2	93	95	96	97
251	3	93	95	96	97
251	4	93	95	96	97
252	27	161	146	145	162
253	18	53	54	55	67
254	27	88	42	41	89
255	27	22	11	10	24
256	27	28	8	7	31
257	27	87	42	41	89
258	18	145	142	141	166
259	27	155	149	148	156
260	13	2	1	93	94
261	18	12	11	10	24
262	27	153	150	149	154
263	27	182	132	131	184
264	18	54	55	56	65
265	27	20	12	11	22
266	18	11	10	9	27
267	27	117	101	100	120
268	18	103	104	105	109
269	35	48	49	50	74
269	36	48	49	50	74
270	18	53	51	50	73
271	18	100	101	102	115
272	11	94	93	95	129
272	12	94	93	95	129
273	18	7	6	5	35
274	27	177	134	133	180
275	15	9	10	11	12
275	16	9	10	11	12
275	17	9	10	11	12
276	18	98	99	100	120
277	27	112	104	103	113
278	27	113	103	102	116
279	27	123	98	97	126
280	27	120	100	99	121
281	31	168	139	138	169
282	30	139	140	141	142
283	14	106	105	104	112
284	18	100	99	98	123
285	5	1	3	4	37
285	6	1	3	4	37
286	27	59	58	57	62
287	14	11	12	13	14
288	18	51	53	54	68
289	27	173	136	135	176
290	27	24	10	9	26
291	27	90	41	40	92
292	20	15	39	40	41
292	21	15	39	40	41
293	28	52	51	53	70
293	29	52	51	53	70
294	5	128	96	95	129
294	6	128	96	95	129
295	11	2	1	3	38
295	12	2	1	3	38
296	18	147	148	149	155
297	27	157	148	147	159
298	18	101	102	103	114
299	35	139	140	141	166
299	36	139	140	141	166
300	28	52	51	50	74
300	29	52	51	50	74
301	27	83	44	43	86
302	18	42	43	44	83
303	15	42	43	44	45
303	16	42	43	44	45
303	17	42	43	44	45
304	5	127	96	95	129
304	6	127	96	95	129
305	15	40	41	42	43
305	16	40	41	42	43
305	17	40	41	42	43
306	30	137	138	139	140
307	27	156	148	147	159
308	27	169	138	137	172
309	18	50	51	53	70
310	18	54	55	56	64
311	38	104	105	106	107
312	27	159	147	146	161
313	18	141	142	145	163
314	18	135	136	137	172
315	27	34	5	4	37
316	27	23	11	10	25
317	18	56	57	58	59
318	18	148	149	150	152
319	14	103	104	105	106
320	27	164	142	141	165
321	27	69	54	53	70
322	7	1	93	95	96
322	8	1	93	95	96
323	27	113	103	102	115
324	18	150	149	148	157
325	9	2	1	3	4
325	10	2	1	3	4
326	32	47	48	49	50
326	33	47	48	49	50
327	27	110	105	104	112
328	27	77	47	46	79
329	18	147	146	145	163
330	18	103	102	101	117
331	5	37	4	3	38
331	6	37	4	3	38
332	5	36	4	3	38
332	6	36	4	3	38
333	27	171	137	136	173
334	15	8	9	10	11
334	16	8	9	10	11
334	17	8	9	10	11
335	27	80	46	45	81
336	27	178	134	133	180
337	18	5	6	7	31
338	22	50	51	52	130
339	31	51	50	49	75
340	18	96	97	98	124
341	28	130	131	132	181
341	29	130	131	132	181
342	18	138	137	136	174
343	18	55	56	57	63
344	18	11	10	9	26
345	18	135	134	133	180
346	35	48	49	50	73
346	36	48	49	50	73
347	13	3	1	93	95
348	18	145	146	147	159
349	18	57	56	55	67
350	27	21	12	11	23
351	27	177	134	133	179
352	15	135	136	137	138
352	16	135	136	137	138
352	17	135	136	137	138
353	15	133	134	135	136
353	16	133	134	135	136
353	17	133	134	135	136
354	18	98	99	100	119
355	27	123	98	97	125
356	5	15	14	13	19
356	6	15	14	13	19
357	27	68	54	53	70
358	18	40	41	42	87
359	5	93	95	96	127
359	6	93	95	96	127
360	27	119	100	99	122
361	18	10	11	12	21
362	27	65	56	55	67
363	27	174	136	135	175
364	14	140	141	142	145
365	27	63	57	56	64
366	15	132	133	134	135
366	16	132	133	134	135
366	17	132	133	134	135
367	27	173	136	135	175
368	7	1	93	95	129
368	8	1	93	95	129
369	27	90	41	40	91
370	28	143	142	145	162
370	29	143	142	145	162
371	27	157	148	147	158
372	18	136	135	134	178
373	27	29	8	7	31
374	18	101	102	103	113
375	35	139	140	141	165
375	36	139	140	141	165
376	15	53	54	55	56
376	16	53	54	55	56
376	17	53	54	55	56
377	28	52	51	50	73
377	29	52	51	50	73
378	18	9	10	11	22
379	35	140	139	138	170
379	36	140	139	138	170
380	34	167	140	139	168
381	27	156	148	147	158
382	18	8	9	10	24
383	27	116	102	101	117
384	27	67	55	54	68
385	27	19	13	12	20
386	18	9	8	7	30
387	18	141	142	145	162
388	7	38	3	1	93
388	8	38	3	1	93
389	34	75	49	48	76
390	18	148	149	150	151
391	27	181	132	131	183
392	15	44	45	46	47
392	16	44	45	46	47
392	17	44	45	46	47
393	15	99	100	101	102
393	16	99	100	101	102
393	17	99	100	101	102
394	40	141	142	143	144
394	41	141	142	143	144
395	18	55	54	53	71
396	27	109	105	104	111
397	18	131	132	133	180
398	18	147	146	145	162
399	18	56	55	54	69
400	18	97	98	99	122
401	5	5	4	3	38
401	6	5	4	3	38
402	27	178	134	133	179
403	18	5	6	7	30
404	18	43	42	41	90
405	37	51	52	130	131
406	14	3	4	5	35
407	27	71	53	51	72
408	18	105	104	103	113
409	40	144	143	142	145
409	41	144	143	142	145
410	27	172	137	136	174
411	7	17	14	15	39
411	8	17	14	15	39
412	7	4	3	1	93
412	8	4	3	1	93
413	14	45	46	47	48