Title

68 atoms
67 bonds
120 angles
222 dihedrals
18 impropers

11 atom types
14 bond types
9 angle types
37 dihedral types
3 improper types
-12.50599957 87.49400043 xlo xhi
-2.693000078 97.30699992 ylo yhi
-7.673999786 92.32600021 zlo zhi
0.0 0.0 0.0 xy xz yz

Masses

1	12.01078
2	15.99943
3	14.00672
4	12.01078
5	1.007947
6	1.007947
7	1.007947
8	15.99943
9	12.01078
10	15.99943
11	1.007947


Pair Coeffs

1	0.086879315	3.4806469
2	0.2102061	3.0398122
3	0.16769152	3.206876
4	0.10884061	3.3795318
5	0.014090815	1.1034277
6	0.016409246	2.5832257
7	0.015779483	2.6445434
8	0.16846514	3.0251065
9	0.21	3.3996695
10	0.20947353	2.99716
11	1.2326e-05	0.53453923

Bond Coeffs

1 harmonic	582.698766451	1.225198386222
2 harmonic	492.76746816345	1.381897776683
3 harmonic	279.1350963404	1.454628925034
4 harmonic	352.0565580496	1.450098586273
5 harmonic	505.144496193	1.019481865027
6 harmonic	264.62148576755	1.52190126495
7 harmonic	370.04670688625	1.093899492634
8 harmonic	301.15400723785	1.345741232799
9 harmonic	366.7408841747	1.425895053732
10 harmonic	300.03137914615	1.451203938761
11 harmonic	366.34047229585	1.464762957261
12 harmonic	602.81384337	1.196112346392
13 harmonic	329.96998057905	1.427343958716
14 harmonic	543.5267831885	0.9716763312559


Angle Coeffs

1 harmonic	55.42182150775	117.3465570514
2 harmonic	63.44422595415	115.5071327674
3 harmonic	57.8982893754	126.8062420451
4 harmonic	53.20531626545	116.5475862634
5 harmonic	65.09061609600001	110.3538806181
6 harmonic	201.41175231035	127.4691416191
7 harmonic	48.776492647595	115.6030999533
8 harmonic	55.07882548015	112.8714009681
9 harmonic	33.56981613361	180


Dihedral Coeffs

1 fourier 1	-0.1488678166443	4	180
2 fourier 1	-0.1230328948768	3	180
3 fourier 1	0.2939295466901	2	0
4 fourier 1	-0.3024127022865	1	0
5 fourier 1	0.182238503271	2	0
6 fourier 1	0.02972342374561	3	0
7 fourier 1	1.809047390003	2	180
8 fourier 1	-0.04816277792592	1	0
9 fourier 1	3.101948770557	2	180
10 fourier 1	-0.4252153282372	1	0
11 fourier 1	2.348375642009	2	180
12 fourier 1	1.256156174911	1	0
13 fourier 1	0.9974165607242	2	180
14 fourier 1	0.1155372516788	3	0
15 fourier 1	0.09223874044423	3	0
16 fourier 1	0.3159935921949	2	180
17 fourier 1	0.3247796806857	1	180
18 fourier 1	0.1040663847541	3	0
19 fourier 1	2.779853741805	2	180
20 fourier 1	0.1918272375143	3	0
21 fourier 1	0.9202179876409	1	180
22 fourier 1	0.0473758381877	3	0
23 fourier 1	0.4860993122944	2	180
24 fourier 1	0.8916986138746	1	0
25 fourier 1	1.163809172478	2	180
26 fourier 1	0.1679186987369	1	180
27 fourier 1	0.1911926717192	3	0
28 fourier 1	-0.0309670556842	3	0
29 fourier 1	0.4598191477945	2	0
30 fourier 1	0.1115525666802	3	0
31 fourier 1	0.3432490222662	1	0
32 fourier 1	0.457973137376	1	0
33 fourier 1	-1.382973039546	1	0
34 fourier 1	0	1	0
35 fourier 1	0.3445382149273	3	0
36 fourier 1	0.1364556373303	1	0
37 fourier 1	0.3026390167484	3	0


Improper Coeffs

1 0.3333333333333333	-1	2
2 0.3666666666666667	-1	2
3 3.5	-1	2


Atoms

1	1	1	0.54575402	-4.6939998	1.331	-0.38600001
2	1	2	-0.66846102	-5.1230001	1.428	0.79500002
3	1	3	-0.51885098	-3.4430001	0.69599998	-0.66100001
4	1	4	0.032917	-2.6159999	0.13600001	0.40700001
5	1	4	-0.14411899	-1.3329999	-0.479	-0.161
6	1	4	-0.14076599	-0.45199999	-1.053	0.95899999
7	1	4	-0.14076599	0.75700003	-1.8430001	0.42699999
8	1	4	-0.142827	1.749	-1.023	-0.41800001
9	1	4	0.027167	2.3959999	0.12800001	0.36399999
10	1	3	-0.462089	3.4519999	0.76200002	-0.42399999
11	1	1	0.78818399	4.2150002	1.858	0.088
12	1	2	-0.59461701	3.9979999	2.3099999	1.244
13	1	5	0.32941601	3.668	0.42500001	-1.39
14	1	6	0.062624998	1.6289999	0.89200002	0.61000001
15	1	6	0.062624998	2.832	-0.264	1.309
16	1	7	0.092373997	1.249	-0.62900001	-1.3279999
17	1	7	0.092373997	2.55	-1.7130001	-0.75999999
18	1	7	0.091049001	1.301	-2.2809999	1.293
19	1	7	0.091049001	0.38800001	-2.6930001	-0.186
20	1	7	0.091049001	-0.114	-0.237	1.633
21	1	7	0.091049001	-1.063	-1.749	1.574
22	1	7	0.092373997	-0.77499998	0.31	-0.708
23	1	7	0.092373997	-1.602	-1.289	-0.875
24	1	6	0.058997001	-3.1960001	-0.64499998	0.94499999
25	1	6	0.058997001	-2.352	0.94400001	1.125
26	1	5	0.32283601	-3.1300001	0.63999999	-1.6569999
27	1	8	-0.49524701	4.9559999	2.2869999	-0.49700001
28	1	4	0.128811	5.882	1.274	-0.778
29	1	4	0.052306	6.7620001	1.006	0.44299999
30	1	8	-0.141923	7.7319999	0.039999999	0.141
31	1	6	0.094077997	7.276	1.9450001	0.73699999
32	1	6	0.094077997	6.1360002	0.671	1.302
33	1	6	0.094977997	6.5219998	1.602	-1.624
34	1	6	0.094977997	5.3559999	0.34099999	-1.085
35	1	1	0.54575402	-5.2810001	1.734	-1.2
36	1	2	-0.66846102	-5.3039999	1.13	-2.3050001
37	1	3	-0.51885098	-6.013	2.95	-1.011
38	1	4	0.032917	-6.8260002	3.556	-2.0639999
39	1	4	-0.14411899	-8.1389999	2.786	-2.2379999
40	1	4	-0.14058401	-9.0120001	3.427	-3.3280001
41	1	4	-0.136388	-10.394	2.7650001	-3.4449999
42	1	4	-0.12057	-10.327	1.36	-4.0650001
43	1	4	0.18622801	-11.726	0.75800002	-4.27
44	1	3	-0.62079602	-12.506	1.5190001	-5.2420001
45	1	9	0.594652	-12.193	1.558	-6.4749999
46	1	2	-0.44231901	-11.887	1.597	-7.6739998
47	1	6	0.036593001	-11.632	-0.29699999	-4.6100001
48	1	6	0.036593001	-12.269	0.75099999	-3.3010001
49	1	7	0.085983001	-9.7629995	0.68199998	-3.3900001
50	1	7	0.085983001	-9.7910004	1.397	-5.0380001
51	1	7	0.089759	-10.874	2.7149999	-2.4430001
52	1	7	0.089759	-11.027	3.415	-4.0879998
53	1	7	0.091049001	-9.1660004	4.4990001	-3.079
54	1	7	0.091049001	-8.4879999	3.381	-4.3080001
55	1	7	0.092373997	-7.9089999	1.7359999	-2.513
56	1	7	0.092373997	-8.6890001	2.7869999	-1.271
57	1	6	0.058997001	-6.2540002	3.572	-3.0179999
58	1	6	0.058997001	-7.053	4.6069999	-1.783
59	1	5	0.32283601	-5.9109998	3.4530001	-0.101
60	1	8	-0.136233	7.2690001	-0.838	0.14300001
61	1	4	0.022553001	6.3660002	-0.81699997	-0.92900002
62	1	4	0.094566002	5.1399999	0.024	-0.57300001
63	1	10	-0.67962801	4.2059999	-0.0099999998	-1.618
64	1	11	0.393554	4.553	0.59299999	-2.3269999
65	1	6	0.091540001	4.664	-0.38999999	0.34099999
66	1	6	0.091540001	5.4429998	1.074	-0.35699999
67	1	6	0.094763003	6.0450001	-1.858	-1.143
68	1	6	0.094763003	6.8569999	-0.412	-1.8430001

Bonds

1	1	1	2
2	2	1	3
3	3	1	35
4	4	3	4
5	5	3	26
6	6	4	5
7	7	4	24
8	7	4	25
9	6	5	6
10	7	5	22
11	7	5	23
12	6	6	7
13	7	6	20
14	7	6	21
15	6	7	8
16	7	7	18
17	7	7	19
18	6	8	9
19	7	8	16
20	7	8	17
21	4	9	10
22	7	9	14
23	7	9	15
24	2	10	11
25	5	10	13
26	1	11	12
27	8	11	27
28	9	27	28
29	6	28	29
30	7	28	33
31	7	28	34
32	9	29	30
33	7	29	31
34	7	29	32
35	10	30	60
36	1	35	36
37	2	35	37
38	4	37	38
39	5	37	59
40	6	38	39
41	7	38	57
42	7	38	58
43	6	39	40
44	7	39	55
45	7	39	56
46	6	40	41
47	7	40	53
48	7	40	54
49	6	41	42
50	7	41	51
51	7	41	52
52	6	42	43
53	7	42	49
54	7	42	50
55	11	43	44
56	7	43	47
57	7	43	48
58	12	44	45
59	1	45	46
60	9	60	61
61	6	61	62
62	7	61	67
63	7	61	68
64	13	62	63
65	7	62	65
66	7	62	66
67	14	63	64

Angles

1	4	42	43	44
2	3	10	11	27
3	4	28	29	31
4	2	35	37	59
5	4	39	40	54
6	4	6	7	18
7	4	4	5	22
8	4	7	8	16
9	4	5	6	7
10	4	3	4	25
11	2	4	3	26
12	4	40	41	51
13	4	10	9	14
14	4	39	38	57
15	4	63	62	66
16	7	67	61	68
17	4	28	29	30
18	4	41	42	50
19	4	40	39	56
20	4	42	41	51
21	4	43	42	49
22	7	20	6	21
23	4	6	7	8
24	4	62	61	67
25	4	6	5	23
26	4	30	29	32
27	7	16	8	17
28	4	5	4	24
29	4	5	6	20
30	4	7	6	20
31	3	10	11	12
32	4	40	39	55
33	7	47	43	48
34	3	2	1	35
35	4	39	40	41
36	7	14	9	15
37	7	33	28	34
38	4	40	41	52
39	4	10	9	15
40	3	1	35	36
41	4	5	4	25
42	4	37	38	57
43	3	2	1	3
44	4	7	8	9
45	2	38	37	59
46	4	39	40	53
47	4	27	28	34
48	5	29	30	60
49	4	8	7	19
50	4	37	38	58
51	4	29	28	33
52	5	30	60	61
53	4	9	8	16
54	4	41	42	43
55	4	38	39	56
56	4	39	38	58
57	7	31	29	32
58	4	61	62	65
59	4	42	41	52
60	7	57	38	58
61	4	7	8	17
62	7	65	62	66
63	4	38	39	55
64	4	27	28	29
65	4	41	42	49
66	3	36	35	37
67	4	8	9	10
68	2	1	3	26
69	7	49	42	50
70	3	3	1	35
71	4	42	43	48
72	1	9	10	11
73	4	30	29	31
74	4	60	61	67
75	9	44	45	46
76	4	61	62	66
77	7	24	4	25
78	4	28	29	32
79	1	1	3	4
80	8	43	44	45
81	4	37	38	39
82	4	6	7	19
83	4	41	40	54
84	5	62	63	64
85	7	22	5	23
86	4	4	5	23
87	4	8	7	18
88	4	4	5	6
89	7	53	40	54
90	4	5	6	21
91	4	7	6	21
92	4	3	4	5
93	2	11	10	13
94	4	40	41	42
95	1	35	37	38
96	4	62	61	68
97	4	43	42	50
98	4	60	61	62
99	4	29	28	34
100	4	44	43	48
101	4	6	5	22
102	4	9	8	17
103	3	1	35	37
104	4	8	9	14
105	4	44	43	47
106	7	51	41	52
107	4	42	43	47
108	7	18	7	19
109	5	11	27	28
110	4	61	62	63
111	4	27	28	33
112	4	63	62	65
113	4	60	61	68
114	2	9	10	13
115	7	55	39	56
116	6	12	11	27
117	4	41	40	53
118	4	3	4	24
119	4	38	39	40
120	4	8	9	15

Dihedrals

1	18	6	7	8	16
2	18	38	39	40	54
3	5	1	3	4	24
3	6	1	3	4	24
4	13	3	1	35	36
5	27	20	6	5	23
6	15	4	5	6	7
6	16	4	5	6	7
6	17	4	5	6	7
7	14	44	43	42	50
8	22	30	60	61	67
9	5	57	38	37	59
9	6	57	38	37	59
10	18	39	40	41	51
11	18	7	6	5	23
12	27	23	5	4	24
13	18	5	6	7	19
14	14	7	8	9	10
15	18	42	41	40	54
16	14	3	4	5	6
17	5	1	3	4	25
17	6	1	3	4	25
18	33	45	44	43	47
19	13	2	1	35	36
20	27	32	29	28	33
21	27	49	42	41	51
22	27	50	42	41	51
23	18	9	8	7	18
24	14	37	38	39	55
25	11	2	1	3	26
25	12	2	1	3	26
26	22	11	27	28	34
27	30	27	28	29	32
27	31	27	28	29	32
28	27	19	7	6	20
29	14	44	43	42	49
30	18	4	5	6	20
31	27	17	8	7	19
32	27	14	9	8	17
33	15	38	39	40	41
33	16	38	39	40	41
33	17	38	39	40	41
34	18	8	7	6	21
35	9	2	1	3	4
35	10	2	1	3	4
36	22	30	60	61	62
37	18	39	40	41	52
38	15	6	7	8	9
38	16	6	7	8	9
38	17	6	7	8	9
39	27	22	5	4	25
40	30	60	61	62	66
40	31	60	61	62	66
41	5	25	4	3	26
41	6	25	4	3	26
42	18	38	39	40	53
43	27	48	43	42	50
44	27	56	39	38	58
45	5	39	38	37	59
45	6	39	38	37	59
46	18	41	40	39	56
47	27	50	42	41	52
48	20	11	27	28	29
48	21	11	27	28	29
49	5	13	10	9	14
49	6	13	10	9	14
50	5	8	9	10	13
50	6	8	9	10	13
51	28	60	61	62	63
51	29	60	61	62	63
52	27	54	40	39	55
53	5	11	10	9	14
53	6	11	10	9	14
54	14	37	38	39	56
55	27	51	41	40	54
56	18	41	40	39	55
57	14	10	9	8	17
58	27	66	62	61	67
59	18	42	41	40	53
60	27	47	43	42	50
61	18	7	8	9	14
62	27	20	6	5	22
63	30	30	29	28	34
63	31	30	29	28	34
64	27	16	8	7	19
65	27	21	6	5	22
66	18	6	7	8	17
67	5	24	4	3	26
67	6	24	4	3	26
68	27	31	29	28	34
69	37	64	63	62	65
70	14	3	4	5	22
71	27	23	5	4	25
72	18	41	42	43	48
73	18	5	6	7	18
74	27	15	9	8	16
75	27	18	7	6	21
76	9	36	35	37	38
76	10	36	35	37	38
77	18	41	42	43	47
78	27	47	43	42	49
79	5	13	10	9	15
79	6	13	10	9	15
80	7	1	35	37	38
80	8	1	35	37	38
81	27	14	9	8	16
82	34	43	44	45	46
83	5	35	37	38	57
83	6	35	37	38	57
84	27	52	41	40	54
85	5	11	10	9	15
85	6	11	10	9	15
86	27	54	40	39	56
87	13	3	1	35	37
88	33	42	43	44	45
89	27	52	41	40	53
90	27	65	62	61	67
91	5	5	4	3	26
91	6	5	4	3	26
92	27	17	8	7	18
93	27	49	42	41	52
94	30	63	62	61	68
94	31	63	62	61	68
95	18	7	8	9	15
96	15	5	6	7	8
96	16	5	6	7	8
96	17	5	6	7	8
97	23	12	11	10	13
97	24	12	11	10	13
98	18	6	5	4	24
99	37	64	63	62	66
100	7	26	3	1	35
100	8	26	3	1	35
101	27	51	41	40	53
102	28	27	28	29	30
102	29	27	28	29	30
103	13	2	1	35	37
104	18	43	42	41	51
105	14	41	42	43	44
106	27	53	40	39	56
107	14	37	38	39	40
108	22	30	60	61	68
109	27	55	39	38	57
110	18	40	41	42	50
111	5	58	38	37	59
111	6	58	38	37	59
112	27	48	43	42	49
113	15	40	41	42	43
113	16	40	41	42	43
113	17	40	41	42	43
114	18	8	7	6	20
115	1	8	9	10	11
115	2	8	9	10	11
115	3	8	9	10	11
115	4	8	9	10	11
116	18	6	5	4	25
117	18	7	6	5	22
118	27	19	7	6	21
119	22	31	29	30	60
120	27	53	40	39	55
121	18	4	5	6	21
122	7	9	10	11	27
122	8	9	10	11	27
123	15	39	40	41	42
123	16	39	40	41	42
123	17	39	40	41	42
124	22	11	27	28	33
125	18	9	8	7	19
126	7	4	3	1	35
126	8	4	3	1	35
127	32	29	30	60	61
128	27	31	29	28	33
129	11	36	35	37	59
129	12	36	35	37	59
130	18	40	41	42	49
131	7	1	35	37	59
131	8	1	35	37	59
132	1	1	3	4	5
132	2	1	3	4	5
132	3	1	3	4	5
132	4	1	3	4	5
133	27	16	8	7	18
134	27	32	29	28	34
135	25	12	11	27	28
135	26	12	11	27	28
136	27	21	6	5	23
137	30	27	28	29	31
137	31	27	28	29	31
138	33	45	44	43	48
139	18	43	42	41	52
140	14	3	4	5	23
141	30	60	61	62	65
141	31	60	61	62	65
142	18	40	39	38	57
143	5	35	37	38	58
143	6	35	37	38	58
144	1	35	37	38	39
144	2	35	37	38	39
144	3	35	37	38	39
144	4	35	37	38	39
145	22	32	29	30	60
146	27	65	62	61	68
147	7	9	10	11	12
147	8	9	10	11	12
148	27	22	5	4	24
149	27	15	9	8	17
150	18	40	39	38	58
151	22	28	29	30	60
152	35	61	62	63	64
152	36	61	62	63	64
153	27	18	7	6	20
154	19	10	11	27	28
155	14	10	9	8	16
156	30	63	62	61	67
156	31	63	62	61	67
157	27	56	39	38	57
158	27	55	39	38	58
159	27	66	62	61	68
160	30	30	29	28	33
160	31	30	29	28	33
161	7	13	10	11	27
161	8	13	10	11	27

Impropers

30	1	37	35	38	59
35	2	35	36	37	1
43	1	10	13	9	11
61	3	11	12	27	10
87	2	35	37	1	36
148	1	10	9	11	13
214	3	11	10	12	27
216	2	1	2	3	35
221	1	3	4	26	1
256	1	37	38	59	35
270	1	37	59	35	38
276	2	1	3	35	2
288	1	3	26	1	4
338	3	11	27	10	12
366	2	35	1	36	37
379	1	3	1	4	26
415	1	10	11	13	9
420	2	1	35	2	3
