Title

111 atoms
118 bonds
205 angles
333 dihedrals
132 impropers

9 atom types
13 bond types
9 angle types
19 dihedral types
3 improper types
-9.581999779 90.41800022 xlo xhi
-2.191999912 97.80800009 ylo yhi
-12.65299988 87.34700012 zlo zhi
0.0 0.0 0.0 xy xz yz

Masses

1	14.00672
2	12.01078
3	1.007947
4	1.007947
5	15.99943
6	12.01078
7	1.007947
8	15.99943
9	1.007947


Pair Coeffs

1	0.16769152	3.206876
2	0.086879315	3.4806469
3	0.015611343	2.5725815
4	0.014090815	1.1034277
5	0.2102061	3.0398122
6	0.10884061	3.3795318
7	0.015779483	2.6445434
8	0.20947353	2.99716
9	1.2326e-05	0.53453923

Bond Coeffs

1 harmonic	390.03554688505	1.390160554689
2 harmonic	505.144496193	1.019481865027
3 harmonic	422.7150220147	1.421786517481
4 harmonic	360.7852444772	1.387193227181
5 harmonic	397.2545789619	1.085358495916
6 harmonic	492.76746816345	1.381897776683
7 harmonic	582.698766451	1.225198386222
8 harmonic	279.1350963404	1.454628925034
9 harmonic	289.73813263395	1.498646816465
10 harmonic	264.62148576755	1.52190126495
11 harmonic	370.04670688625	1.093899492634
12 harmonic	385.7604595587	1.369745182308
13 harmonic	543.5267831885	0.9716763312559


Angle Coeffs

1 harmonic	57.8982893754	126.8062420451
2 harmonic	55.42182150775	117.3465570514
3 harmonic	63.44422595415	115.5071327674
4 harmonic	34.066775159195	129.1835929926
5 harmonic	53.20531626545	116.5475862634
6 harmonic	14.32262199324	138.3184368373
7 harmonic	48.776492647595	115.6030999533
8 harmonic	65.09061609600001	110.3538806181
9 harmonic	201.41175231035	127.4691416191


Dihedral Coeffs

1 fourier 1	3.661930099076	2	180
2 fourier 1	1.193093382682	2	180
3 fourier 1	0.02021088501612	1	0
4 fourier 1	3.101948770557	2	180
5 fourier 1	-0.4252153282372	1	0
6 fourier 1	1.809047390003	2	180
7 fourier 1	-0.04816277792592	1	0
8 fourier 1	0.9974165607242	2	180
9 fourier 1	2.348375642009	2	180
10 fourier 1	1.256156174911	1	0
11 fourier 1	0.02664938770063	3	0
12 fourier 1	0.1155372516788	3	0
13 fourier 1	0.09223874044423	3	0
14 fourier 1	0.3159935921949	2	180
15 fourier 1	0.3247796806857	1	180
16 fourier 1	0.1040663847541	3	0
17 fourier 1	2.687457892086	2	180
18 fourier 1	2.772607909663	2	180
19 fourier 1	0.09692684957115	1	0


Improper Coeffs

1 0.3666666666666667	-1	2
2 0.3333333333333333	-1	2
3 3.5	-1	2


Atoms

1	1	1	-0.41015401	2.842	0.102	0.090000004
2	1	2	0.086103998	1.415	0.030999999	0.046
3	1	2	-0.37280199	0.79000002	-1.158	0.079000004
4	1	3	0.22499201	1.359	-2.0769999	0.14
5	1	2	-0.330654	-0.68599999	-1.224	0.033
6	1	3	0.221131	-1.1720001	-2.1919999	0.061000001
7	1	2	0.15014499	-1.4119999	-0.097000003	-0.043000001
8	1	1	-0.53045702	-2.8399999	-0.155	-0.088
9	1	4	0.32144901	-3.3440001	-1.069	-0.063000001
10	1	2	-0.330654	-0.72299999	1.214	-0.079000004
11	1	3	0.221131	-1.301	2.128	-0.14
12	1	2	-0.37280199	0.61400002	1.275	-0.037
13	1	3	0.22499201	1.11	2.237	-0.064999998
14	1	4	0.375213	3.424	-0.764	0.149
15	1	2	0.76978397	-3.4130001	0.73900002	-0.148
16	1	5	-0.65103	-3.642	1.387	0.90700001
17	1	2	-0.368907	-3.928	1.205	-1.448
18	1	2	-0.075631	-3.677	0.50099999	-2.562
19	1	3	0.22715899	-3.098	-0.41299999	-2.52
20	1	2	-0.246168	-4.1890001	0.95899999	-3.8710001
21	1	3	0.21767201	-3.973	0.338	-4.7270002
22	1	2	-0.206497	-4.895	2.1059999	-3.977
23	1	6	0.026083	-5.4819999	2.6040001	-5.309
24	1	6	-0.130759	-4.8429999	1.956	-6.5609999
25	1	7	0.089703999	-5.098	0.87699997	-6.625
26	1	7	0.089703999	-5.2199998	2.4389999	-7.4889998
27	1	7	0.089703999	-3.737	2.066	-6.539
28	1	2	-0.121525	-5.3249998	4.0879998	-5.427
29	1	2	-0.148408	-4.1820002	4.7880001	-5.3769999
30	1	3	0.21720099	-3.233	4.2909999	-5.224
31	1	2	0.003459	-4.2360001	6.2600002	-5.5359998
32	1	3	0.2175	-3.313	6.8239999	-5.4889998
33	1	2	-0.34365401	-5.4169998	6.882	-5.7379999
34	1	2	0.58752799	-5.461	8.3459997	-5.8990002
35	1	5	-0.50493902	-6.5539999	8.9420004	-6.0879998
36	1	2	0.074928001	-6.6690001	6.0749998	-5.8000002
37	1	3	0.211502	-7.6240001	6.553	-5.974
38	1	2	-0.178407	-6.5949998	4.7449999	-5.6389999
39	1	6	-0.026254	-7.7179999	3.7590001	-5.6830001
40	1	6	-0.13033301	-8.3260002	3.714	-7.098
41	1	7	0.093892999	-8.7749996	4.6950002	-7.3639998
42	1	7	0.093892999	-7.5469999	3.47	-7.8520002
43	1	7	0.093892999	-9.1219997	2.941	-7.151
44	1	6	-0.13033301	-8.8009996	4.1149998	-4.6479998
45	1	7	0.093892999	-9.2910004	5.079	-4.902
46	1	7	0.093892999	-8.3570004	4.2049999	-3.632
47	1	7	0.093892999	-9.5819998	3.325	-4.6220002
48	1	6	-0.180198	-7.033	2.3989999	-5.3309999
49	1	7	0.132295	-7.3280001	1.599	-6.046
50	1	7	0.132295	-7.3870001	2.036	-4.3390002
51	1	2	-0.246168	-5.191	2.865	-2.727
52	1	3	0.21767201	-5.79	3.766	-2.766
53	1	2	-0.075631	-4.7329998	2.4449999	-1.5420001
54	1	3	0.227158	-4.9619999	3.017	-0.65200001
55	1	1	-0.41015401	3.3269999	1.027	0.064000003
56	1	2	0.086103998	4.7410002	1.098	-0.132
57	1	2	-0.33663899	5.3660002	2.286	-0.16500001
58	1	3	0.22499201	4.8070002	3.2060001	-0.044
59	1	2	-0.411838	6.8280001	2.3529999	-0.368
60	1	3	0.236129	7.3150001	3.3199999	-0.39300001
61	1	2	0.26738399	7.5419998	1.226	-0.52100003
62	1	1	-0.842839	8.9569998	1.283	-0.71799999
63	1	4	0.36991701	9.5109997	0.40599999	-0.83600003
64	1	4	0.36991701	9.4610004	2.198	-0.74699998
65	1	2	-0.411838	6.8530002	-0.086000003	-0.484
66	1	3	0.236129	7.421	-0.99900001	-0.60600001
67	1	2	-0.33663899	5.5279999	-0.146	-0.30000001
68	1	3	0.22499201	5.0320001	-1.108	-0.27399999
69	1	4	0.375213	2.7539999	1.892	0.185
70	1	2	0.59302801	-4.5489998	8.927	-5.855
71	1	5	-0.51552099	-3.655	8.5970001	-5.0300002
72	1	2	-0.33220601	-4.3730001	10.082	-6.7540002
73	1	2	0.0087510003	-3.256	10.827	-6.7329998
74	1	3	0.225125	-2.4449999	10.599	-6.052
75	1	2	-0.239408	-3.109	11.978	-7.645
76	1	3	0.21767201	-2.1849999	12.542	-7.6100001
77	1	2	-0.206497	-4.0939999	12.32	-8.5059996
78	1	6	0.026083	-3.8989999	13.509	-9.4630003
79	1	6	-0.130759	-5.1950002	13.926	-10.194
80	1	7	0.089703999	-6.007	14.14	-9.4659996
81	1	7	0.089703999	-5.5320001	13.128	-10.889
82	1	7	0.089703999	-5.026	14.843	-10.8
83	1	2	-0.121525	-3.375	14.704	-8.7270002
84	1	2	-0.16780899	-3.9349999	15.315	-7.6729999
85	1	3	0.21720099	-4.8600001	14.95	-7.2470002
86	1	2	-0.05779	-3.2650001	16.503	-7.0949998
87	1	3	0.23383901	-3.72	16.987	-6.2399998
88	1	2	-0.225508	-2.112	16.969	-7.6300001
89	1	2	0.83685702	-1.433	18.156	-7.066
90	1	5	-0.472626	-1.9170001	18.761	-6.0700002
91	1	8	-0.66280502	-0.248	18.615	-7.6339998
92	1	9	0.42036301	0.228	19.427	-7.2579999
93	1	2	0.0090859998	-1.524	16.271	-8.8070002
94	1	3	0.226704	-0.60900003	16.631001	-9.2609997
95	1	2	-0.17266899	-2.1429999	15.189	-9.3039999
96	1	6	-0.026254	-1.729	14.363	-10.481
97	1	6	-0.13033301	-0.30199999	13.815	-10.29
98	1	7	0.093892999	0.442	14.64	-10.275
99	1	7	0.093892999	-0.223	13.255	-9.3319998
100	1	7	0.093892999	-0.039999999	13.127	-11.122
101	1	6	-0.13033301	-1.809	15.203	-11.769
102	1	7	0.093892999	-2.8329999	15.613	-11.906
103	1	7	0.093892999	-1.094	16.052	-11.731
104	1	7	0.093892999	-1.5599999	14.578	-12.653
105	1	6	-0.180198	-2.7750001	13.202	-10.509
106	1	7	0.132295	-3.1949999	13.061	-11.53
107	1	7	0.132295	-2.2809999	12.232	-10.273
108	1	2	-0.239408	-5.323	11.473	-8.5310001
109	1	3	0.21767201	-6.1350002	11.681	-9.2119999
110	1	2	0.0087510003	-5.4520001	10.427	-7.7049999
111	1	3	0.225125	-6.3540001	9.8290005	-7.7389998

Bonds

1	1	1	2
2	2	1	14
3	3	1	55
4	4	2	3
5	4	2	12
6	5	3	4
7	4	3	5
8	5	5	6
9	4	5	7
10	1	7	8
11	4	7	10
12	2	8	9
13	6	8	15
14	5	10	11
15	4	10	12
16	5	12	13
17	7	15	16
18	8	15	17
19	4	17	18
20	4	17	53
21	5	18	19
22	4	18	20
23	5	20	21
24	4	20	22
25	9	22	23
26	4	22	51
27	10	23	24
28	9	23	28
29	10	23	48
30	11	24	25
31	11	24	26
32	11	24	27
33	4	28	29
34	4	28	38
35	5	29	30
36	4	29	31
37	5	31	32
38	4	31	33
39	8	33	34
40	4	33	36
41	7	34	35
42	8	34	70
43	5	36	37
44	4	36	38
45	9	38	39
46	10	39	40
47	10	39	44
48	10	39	48
49	11	40	41
50	11	40	42
51	11	40	43
52	11	44	45
53	11	44	46
54	11	44	47
55	11	48	49
56	11	48	50
57	5	51	52
58	4	51	53
59	5	53	54
60	1	55	56
61	2	55	69
62	4	56	57
63	4	56	67
64	5	57	58
65	4	57	59
66	5	59	60
67	4	59	61
68	1	61	62
69	4	61	65
70	2	62	63
71	2	62	64
72	5	65	66
73	4	65	67
74	5	67	68
75	7	70	71
76	8	70	72
77	4	72	73
78	4	72	110
79	5	73	74
80	4	73	75
81	5	75	76
82	4	75	77
83	9	77	78
84	4	77	108
85	10	78	79
86	9	78	83
87	10	78	105
88	11	79	80
89	11	79	81
90	11	79	82
91	4	83	84
92	4	83	95
93	5	84	85
94	4	84	86
95	5	86	87
96	4	86	88
97	8	88	89
98	4	88	93
99	7	89	90
100	12	89	91
101	13	91	92
102	5	93	94
103	4	93	95
104	9	95	96
105	10	96	97
106	10	96	101
107	10	96	105
108	11	97	98
109	11	97	99
110	11	97	100
111	11	101	102
112	11	101	103
113	11	101	104
114	11	105	106
115	11	105	107
116	5	108	109
117	4	108	110
118	5	110	111

Angles

1	5	95	96	101
2	7	41	40	42
3	1	78	83	95
4	5	78	105	106
5	1	33	34	70
6	4	17	18	19
7	2	2	1	55
8	6	36	38	39
9	5	38	39	44
10	7	99	97	100
11	6	78	83	84
12	5	23	24	27
13	7	46	44	47
14	1	34	70	72
15	4	4	3	5
16	4	88	93	94
17	1	15	17	53
18	4	28	29	30
19	7	102	101	103
20	1	3	5	7
21	4	76	75	77
22	5	22	23	48
23	5	38	39	40
24	7	80	79	81
25	1	84	86	88
26	5	23	48	50
27	4	83	84	85
28	9	90	89	91
29	4	11	10	12
30	5	79	78	83
31	4	52	51	53
32	1	33	34	35
33	5	40	39	48
34	4	37	36	38
35	4	65	67	68
36	4	56	57	58
37	1	88	93	95
38	5	96	101	102
39	1	15	17	18
40	1	28	29	31
41	4	2	3	4
42	1	7	10	12
43	7	102	101	104
44	1	72	110	108
45	1	70	72	110
46	7	80	79	82
47	6	23	28	29
48	1	77	108	110
49	5	39	44	46
50	7	25	24	27
51	7	106	105	107
52	5	39	40	41
53	4	29	31	32
54	1	8	15	17
55	5	28	23	48
56	4	57	59	60
57	4	2	12	13
58	2	1	55	56
59	1	5	7	8
60	1	1	2	3
61	4	87	86	88
62	1	56	57	59
63	5	96	101	103
64	7	42	40	43
65	1	75	77	78
66	5	39	44	47
67	3	14	1	55
68	5	96	97	98
69	4	30	29	31
70	1	57	59	61
71	4	33	36	37
72	1	28	38	39
73	4	73	75	76
74	1	86	88	93
75	3	9	8	15
76	1	72	73	75
77	4	10	12	13
78	5	23	48	39
79	7	41	40	43
80	5	78	105	107
81	1	17	18	20
82	4	22	51	52
83	1	86	88	89
84	1	16	15	17
85	5	96	97	99
86	1	84	83	95
87	3	1	55	69
88	1	88	89	90
89	1	33	36	38
90	1	2	12	10
91	3	2	1	14
92	5	39	48	49
93	4	6	5	7
94	1	83	84	86
95	1	62	61	65
96	5	78	79	80
97	1	1	2	12
98	3	7	8	9
99	7	49	48	50
100	1	2	3	5
101	1	88	89	91
102	6	93	95	96
103	1	59	61	65
104	3	61	62	63
105	4	56	67	68
106	5	97	96	105
107	4	61	65	66
108	4	94	93	95
109	5	23	24	25
110	5	22	23	28
111	5	39	40	42
112	1	29	31	33
113	5	77	78	105
114	7	98	97	99
115	1	5	7	10
116	1	18	17	53
117	1	55	56	67
118	4	17	53	54
119	5	97	96	101
120	5	96	101	104
121	1	31	33	36
122	5	22	23	24
123	4	109	108	110
124	3	61	62	64
125	1	71	70	72
126	4	74	73	75
127	5	78	105	96
128	1	34	70	71
129	5	39	40	43
130	4	21	20	22
131	7	98	97	100
132	4	85	84	86
133	5	101	96	105
134	1	23	28	38
135	1	73	72	110
136	1	59	61	62
137	1	29	28	38
138	4	84	86	87
139	5	23	48	49
140	1	73	75	77
141	1	56	67	65
142	5	24	23	28
143	2	7	8	15
144	7	45	44	46
145	7	103	101	104
146	4	66	65	67
147	7	81	79	82
148	4	18	20	21
149	1	22	51	53
150	1	23	22	51
151	1	28	38	36
152	1	17	53	51
153	5	96	105	106
154	5	96	97	100
155	8	89	91	92
156	4	7	10	11
157	1	35	34	70
158	5	95	96	97
159	4	108	110	111
160	4	51	53	54
161	1	70	72	73
162	5	79	78	105
163	4	60	59	61
164	3	63	62	64
165	5	39	48	50
166	1	83	95	96
167	4	72	110	111
168	1	55	56	57
169	4	77	108	109
170	5	39	44	45
171	7	25	24	26
172	1	34	33	36
173	1	20	22	23
174	5	78	79	81
175	7	26	24	27
176	7	45	44	47
177	1	8	15	16
178	1	57	56	67
179	4	58	57	59
180	1	78	77	108
181	1	18	20	22
182	5	77	78	83
183	5	96	105	107
184	1	75	77	108
185	3	56	55	69
186	1	31	33	34
187	5	40	39	44
188	4	32	31	33
189	1	61	65	67
190	5	23	24	26
191	5	77	78	79
192	1	8	7	10
193	5	78	79	82
194	5	95	96	105
195	4	3	5	6
196	1	20	22	51
197	5	38	39	48
198	5	44	39	48
199	5	24	23	48
200	1	3	2	12
201	1	83	95	93
202	4	72	73	74
203	5	83	78	105
204	4	19	18	20
205	1	89	88	93

Dihedrals

1	1	78	83	84	85
2	1	18	17	53	51
3	12	95	96	101	103
4	12	38	39	44	47
5	1	1	2	3	4
6	2	67	56	55	69
7	8	16	15	17	18
8	11	95	83	78	105
9	1	75	77	108	109
10	1	70	72	110	111
11	16	26	24	23	48
12	1	3	2	12	10
13	11	75	77	78	79
14	1	31	33	36	38
15	11	79	78	83	84
16	11	20	22	23	48
17	8	91	89	88	93
18	1	2	12	10	7
19	1	58	57	59	60
20	16	80	79	78	105
21	2	12	2	1	55
22	1	21	20	22	23
23	1	17	18	20	22
24	8	31	33	34	70
25	1	28	29	31	33
26	11	77	78	83	84
27	8	8	15	17	53
28	1	59	57	56	67
29	16	40	39	44	45
30	2	57	56	55	69
31	1	8	7	10	11
32	1	74	73	75	77
33	1	84	83	95	93
34	11	84	83	78	105
35	2	59	61	62	64
36	1	28	38	36	37
37	11	28	38	39	44
38	1	59	61	65	67
39	12	95	96	97	99
40	1	15	17	53	51
41	16	41	40	39	48
42	17	88	89	91	92
43	16	24	23	48	49
44	1	72	73	75	76
45	1	29	28	38	36
46	1	85	84	83	95
47	11	24	23	22	51
48	1	70	72	110	108
49	16	47	44	39	48
50	1	52	51	53	54
51	16	40	39	48	50
52	1	6	5	7	8
53	16	45	44	39	48
54	11	77	78	83	95
55	12	77	78	105	106
56	2	1	55	56	57
57	1	72	110	108	77
58	12	95	96	105	107
59	11	28	38	39	48
60	1	78	77	108	110
61	16	82	79	78	105
62	1	94	93	95	96
63	16	98	97	96	101
64	1	20	18	17	53
65	1	19	18	20	22
66	12	22	23	24	27
67	2	9	8	7	10
68	1	56	67	65	61
69	16	104	101	96	105
70	1	30	29	28	38
71	11	75	77	78	105
72	1	19	18	17	53
73	1	66	65	67	68
74	1	77	108	110	111
75	1	31	33	36	37
76	1	23	28	29	31
77	1	18	17	53	54
78	8	35	34	33	36
79	1	74	73	72	110
80	11	83	95	96	97
81	1	78	83	95	93
82	1	88	93	95	96
83	16	99	97	96	105
84	1	62	61	65	67
85	1	17	18	20	21
86	1	28	29	31	32
87	16	79	78	105	107
88	1	76	75	77	78
89	1	74	73	75	76
90	6	9	8	15	17
90	7	9	8	15	17
91	16	103	101	96	105
92	2	59	61	62	63
93	12	95	96	97	98
94	1	29	31	33	36
95	8	34	70	72	110
96	12	78	105	96	95
97	1	4	3	5	7
98	13	24	23	48	39
98	14	24	23	48	39
98	15	24	23	48	39
99	1	5	7	10	12
100	1	57	56	67	65
101	8	31	33	34	35
102	12	27	24	23	28
103	1	15	17	18	19
104	3	14	1	55	56
105	2	64	62	61	65
106	8	8	15	17	18
107	16	40	39	48	49
108	2	3	2	1	55
109	2	1	55	56	67
110	1	32	31	33	36
111	1	61	65	67	68
112	1	84	83	95	96
113	1	3	5	7	8
114	1	28	38	36	33
115	4	7	8	15	16
115	5	7	8	15	16
116	13	23	48	39	40
116	14	23	48	39	40
116	15	23	48	39	40
117	1	15	17	53	54
118	8	86	88	89	91
119	12	38	39	40	42
120	12	28	23	48	50
121	1	83	84	86	88
122	1	78	77	108	109
123	12	28	23	48	39
124	1	89	88	93	95
125	1	29	28	38	39
126	2	10	7	8	15
127	3	14	1	55	69
128	16	27	24	23	48
129	1	2	3	5	7
130	11	22	23	28	38
131	1	23	22	51	53
132	1	55	56	57	59
133	8	36	33	34	70
134	13	23	48	39	44
134	14	23	48	39	44
134	15	23	48	39	44
135	1	23	28	29	30
136	16	44	39	48	49
137	11	28	38	39	40
138	13	78	105	96	101
138	14	78	105	96	101
138	15	78	105	96	101
139	16	41	40	39	44
140	1	85	84	86	87
141	11	93	95	96	105
142	11	36	38	39	48
143	1	70	72	73	75
144	9	9	8	15	16
144	10	9	8	15	16
145	1	6	5	7	10
146	1	72	110	108	109
147	16	97	96	101	103
148	8	34	70	72	73
149	1	78	83	95	96
150	1	31	29	28	38
151	16	42	40	39	48
152	1	56	67	65	66
153	1	60	59	61	62
154	1	76	75	77	108
155	1	56	57	59	61
156	12	95	96	101	102
157	1	86	88	93	95
158	12	38	39	44	46
159	8	86	88	89	90
160	11	24	23	28	29
161	12	38	39	40	41
162	12	28	23	48	49
163	8	16	15	17	53
164	16	99	97	96	101
165	2	12	2	1	14
166	1	57	56	67	68
167	11	28	23	22	51
168	12	22	23	48	50
169	1	73	72	110	108
170	12	22	23	48	39
171	1	55	56	57	58
172	1	34	33	36	38
173	1	1	2	12	13
174	1	73	75	77	78
175	11	105	78	77	108
176	12	83	78	105	107
177	1	23	28	38	36
178	1	75	77	108	110
179	13	79	78	105	96
179	14	79	78	105	96
179	15	79	78	105	96
180	12	81	79	78	83
181	3	2	1	55	56
182	16	97	96	105	107
183	1	1	2	12	10
184	1	59	61	65	66
185	16	97	96	101	102
186	1	30	29	31	33
187	1	5	3	2	12
188	16	101	96	105	107
189	12	77	78	79	82
190	1	8	7	10	12
191	3	2	1	55	69
192	2	5	7	8	9
193	1	22	51	53	54
194	1	57	59	61	62
195	12	95	96	105	106
196	12	38	39	48	50
197	11	38	28	23	48
198	1	86	88	93	94
199	12	95	96	97	100
200	12	38	39	44	45
201	13	78	105	96	97
201	14	78	105	96	97
201	15	78	105	96	97
202	12	80	79	78	83
203	11	93	95	96	101
204	1	19	18	20	21
205	12	22	23	48	49
206	12	22	23	24	26
207	1	60	59	61	65
208	11	36	38	39	44
209	12	77	78	105	107
210	11	20	22	23	28
211	11	79	78	77	108
212	1	34	33	36	37
213	2	5	7	8	15
214	16	43	40	39	48
215	11	83	95	96	105
216	1	84	86	88	93
217	12	83	78	105	106
218	1	87	86	88	93
219	1	55	56	67	65
220	16	42	40	39	44
221	1	62	61	65	66
222	12	25	24	23	28
223	1	73	72	110	111
224	8	90	89	88	93
225	16	79	78	105	106
226	1	20	22	51	53
227	2	3	2	1	14
228	1	17	53	51	22
229	1	37	36	38	39
230	16	97	96	105	106
231	1	73	75	77	108
232	1	18	20	22	51
233	1	30	29	31	32
234	1	2	12	10	11
235	1	4	3	5	6
236	12	82	79	78	83
237	1	5	7	10	11
238	1	23	28	38	39
239	16	101	96	105	106
240	12	77	78	79	81
241	16	25	24	23	48
242	1	4	3	2	12
243	8	33	34	70	72
244	16	40	39	44	47
245	11	75	77	78	83
246	11	48	23	22	51
247	8	71	70	72	110
248	11	79	78	83	95
249	12	38	39	48	49
250	1	83	95	93	88
251	1	109	108	110	111
252	1	83	84	86	87
253	11	29	28	23	48
254	1	89	88	93	94
255	1	15	17	18	20
256	12	22	23	24	25
257	8	35	34	70	72
258	16	46	44	39	48
259	1	2	3	5	6
260	1	23	22	51	52
261	16	100	97	96	101
262	6	7	8	15	17
262	7	7	8	15	17
263	1	29	31	33	34
264	1	78	83	84	86
265	1	57	59	61	65
266	12	95	96	101	104
267	12	38	39	40	43
268	1	1	2	3	5
269	11	24	23	28	38
270	1	75	73	72	110
271	12	83	78	105	96
272	1	32	31	33	34
273	16	100	97	96	105
274	1	20	22	51	52
275	1	70	72	73	74
276	16	44	39	48	50
277	1	58	57	59	61
278	1	3	5	7	10
279	1	83	95	93	94
280	1	18	20	22	23
281	1	85	84	86	88
282	1	11	10	12	13
283	11	93	95	96	97
284	16	98	97	96	105
285	1	55	56	67	68
286	1	21	20	22	51
287	1	7	10	12	13
288	11	83	78	77	108
289	12	77	78	79	80
290	8	33	34	70	71
291	16	40	39	44	46
292	11	36	38	39	40
293	11	20	22	23	24
294	1	17	53	51	52
295	1	58	57	56	67
296	12	23	48	39	38
297	16	102	101	96	105
298	1	56	57	59	60
299	8	71	70	72	73
300	16	97	96	101	104
301	16	43	40	39	44
302	11	83	95	96	101
303	1	84	86	88	89
304	16	24	23	48	50
305	1	72	73	75	77
306	2	63	62	61	65
307	1	87	86	88	89
308	11	22	23	28	29
309	12	26	24	23	28
310	8	35	34	70	71
311	1	3	2	12	13
312	1	86	84	83	95
313	1	33	36	38	39
314	18	90	89	91	92
314	19	90	89	91	92
315	12	77	78	105	96
316	16	81	79	78	105

Impropers

5	1	28	29	38	23
6	1	29	30	31	28
12	2	62	63	64	61
17	1	10	7	11	12
34	1	20	18	21	22
36	2	8	7	9	15
38	1	22	51	20	23
39	1	93	88	94	95
41	1	36	33	37	38
44	1	84	86	83	85
49	1	77	108	75	78
50	1	36	38	33	37
56	2	55	69	1	56
58	1	110	72	108	111
60	1	28	38	23	29
67	1	12	2	10	13
71	1	83	95	78	84
73	1	59	61	57	60
76	1	56	57	67	55
77	1	67	56	65	68
97	3	89	91	88	90
104	1	108	109	110	77
117	1	33	31	34	36
119	1	72	70	73	110
122	1	5	6	7	3
127	2	8	15	7	9
129	1	83	78	84	95
131	1	28	23	29	38
133	1	70	34	71	72
134	1	73	72	74	75
138	1	18	20	17	19
145	1	22	23	51	20
148	3	89	90	91	88
149	1	65	66	67	61
155	1	84	85	86	83
158	1	95	83	93	96
163	1	51	53	22	52
166	1	15	17	8	16
169	1	34	35	70	33
170	1	31	32	33	29
171	1	65	67	61	66
178	1	75	77	73	76
179	1	53	17	51	54
181	1	108	77	109	110
183	1	57	58	59	56
188	1	86	87	88	84
190	1	2	3	12	1
195	2	1	2	14	55
197	1	65	61	66	67
198	2	62	61	63	64
199	1	18	17	19	20
201	1	38	36	39	28
206	2	1	14	55	2
208	1	12	13	2	10
215	1	7	5	8	10
218	1	86	88	84	87
221	1	77	78	108	75
230	1	38	39	28	36
231	1	29	28	30	31
234	1	15	8	16	17
235	1	77	75	78	108
241	1	70	71	72	34
249	1	108	110	77	109
257	2	8	9	15	7
261	1	31	33	29	32
267	1	5	3	6	7
279	1	67	68	56	65
281	1	20	21	22	18
282	1	2	12	1	3
290	1	3	2	4	5
293	1	33	34	36	31
299	2	55	56	69	1
300	1	95	96	83	93
301	1	73	74	75	72
305	1	53	51	54	17
307	1	20	22	18	21
320	1	73	75	72	74
323	1	51	52	53	22
328	1	36	37	38	33
330	1	61	65	59	62
335	1	29	31	28	30
339	1	93	95	88	94
346	1	83	84	95	78
353	1	61	59	62	65
361	1	75	73	76	77
367	1	110	111	72	108
369	1	3	4	5	2
372	1	51	22	52	53
373	2	55	1	56	69
374	1	75	76	77	73
378	1	110	108	111	72
379	1	17	18	53	15
381	1	88	86	89	93
390	1	93	94	95	88
392	1	88	93	86	89
395	1	57	56	58	59
407	1	86	84	87	88
410	1	17	53	15	18
415	1	61	62	65	59
421	1	57	59	56	58
426	1	38	28	36	39
433	1	59	57	60	61
434	1	2	1	3	12
441	1	3	5	2	4
442	1	56	67	55	57
444	1	70	72	34	71
446	1	72	73	110	70
450	1	56	55	57	67
458	1	10	11	12	7
459	1	84	83	85	86
461	1	34	33	35	70
466	1	10	12	7	11
475	1	7	10	5	8
477	1	67	65	68	56
479	1	59	60	61	57
493	2	1	55	2	14
494	1	5	7	3	6
498	1	15	16	17	8
508	1	17	15	18	53
510	1	18	19	20	17
515	1	72	110	70	73
516	2	62	64	61	63
523	1	34	70	33	35
525	1	53	54	17	51
527	1	22	20	23	51
528	1	31	29	32	33
535	1	88	89	93	86
536	1	95	93	96	83
538	3	89	88	90	91
547	1	33	36	31	34
550	1	7	8	10	5
552	1	12	10	13	2
