Title

14000 atoms
14375 bonds
24750 angles
36625 dihedrals
11250 impropers

12 atom types
18 bond types
11 angle types
29 dihedral types
3 improper types
-12.37034457 154.8048681 xlo xhi
-15.55980683 154.5291871 ylo yhi
-15.98212013 153.5118147 zlo zhi
0.0 0.0 0.0 xy xz yz

Masses

1	12.01078
2	15.99943
3	14.00672
4	1.007947
5	12.01078
6	1.007947
7	1.007947
8	15.99943
9	1.007947
10	12.01078
11	15.99943
12	1.007947


Pair Coeffs

1	0.086879315	3.4806469
2	0.2102061	3.0398122
3	0.16769152	3.206876
4	0.015611343	2.5725815
5	0.10884061	3.3795318
6	0.014090815	1.1034277
7	0.015779483	2.6445434
8	0.16846514	3.0251065
9	0.016409246	2.5832257
10	0.21	3.3996695
11	0.20947353	2.99716
12	1.2326e-05	0.53453923

Bond Coeffs

1 harmonic	582.698766451	1.225198386222
2 harmonic	492.76746816345	1.381897776683
3 harmonic	279.1350963404	1.454628925034
4 harmonic	390.03554688505	1.390160554689
5 harmonic	505.144496193	1.019481865027
6 harmonic	360.7852444772	1.387193227181
7 harmonic	397.2545789619	1.085358495916
8 harmonic	289.73813263395	1.498646816465
9 harmonic	370.04670688625	1.093899492634
10 harmonic	301.15400723785	1.345741232799
11 harmonic	366.7408841747	1.425895053732
12 harmonic	264.62148576755	1.52190126495
13 harmonic	300.03137914615	1.451203938761
14 harmonic	366.34047229585	1.464762957261
15 harmonic	382.5450169811	1.379244394267
16 harmonic	602.81384337	1.196112346392
17 harmonic	329.96998057905	1.427343958716
18 harmonic	543.5267831885	0.9716763312559


Angle Coeffs

1 harmonic	55.42182150775	117.3465570514
2 harmonic	63.44422595415	115.5071327674
3 harmonic	57.8982893754	126.8062420451
4 harmonic	34.066775159195	129.1835929926
5 harmonic	53.20531626545	116.5475862634
6 harmonic	65.09061609600001	110.3538806181
7 harmonic	201.41175231035	127.4691416191
8 harmonic	48.776492647595	115.6030999533
9 harmonic	49.015990027215	114.8414599994
10 harmonic	55.07882548015	112.8714009681
11 harmonic	33.56981613361	180


Dihedral Coeffs

1 fourier 1	1.193093382682	2	180
2 fourier 1	1.809047390003	2	180
3 fourier 1	-0.04816277792592	1	0
4 fourier 1	3.101948770557	2	180
5 fourier 1	-0.4252153282372	1	0
6 fourier 1	2.348375642009	2	180
7 fourier 1	1.256156174911	1	0
8 fourier 1	0.9974165607242	2	180
9 fourier 1	3.661930099076	2	180
10 fourier 1	0.02664938770063	3	0
11 fourier 1	2.779853741805	2	180
12 fourier 1	0.1918272375143	3	0
13 fourier 1	0.9202179876409	1	180
14 fourier 1	0.0473758381877	3	0
15 fourier 1	0.4860993122944	2	180
16 fourier 1	0.8916986138746	1	0
17 fourier 1	1.163809172478	2	180
18 fourier 1	0.1679186987369	1	180
19 fourier 1	0.1155372516788	3	0
20 fourier 1	0.1040663847541	3	0
21 fourier 1	0.2810888471023	3	0
22 fourier 1	0.05324557188047	2	180
23 fourier 1	0.457973137376	1	0
24 fourier 1	0.2036670163956	3	0
25 fourier 1	1.550515418264	2	180
26 fourier 1	0	1	0
27 fourier 1	0.3445382149273	3	0
28 fourier 1	0.1364556373303	1	0
29 fourier 1	0.3026390167484	3	0


Improper Coeffs

1 0.3333333333333333	-1	2
2 0.3666666666666667	-1	2
3 3.5	-1	2


Atoms

1	3	1	0.56984692	0.73484494	3.414417	-4.3777449
2	3	2	-0.61920631	1.9790533	3.5313914	-4.535838
3	3	3	-0.50946457	0.11470862	3.7028296	-3.1192132
4	3	1	0.20223778	0.83458827	3.9270253	-1.8950386
5	3	1	-0.38340974	0.32065418	4.7478046	-0.964162
6	3	4	0.21330548	-0.61828056	5.2579816	-1.1408227
7	3	1	-0.14605463	1.0347361	4.9827349	0.30837747
8	3	4	0.21164255	0.59771924	5.6514489	1.0395695
9	3	1	-0.24834662	2.2062325	4.3710628	0.55099147
10	3	5	-0.05170701	2.9218187	4.5708903	1.8599114
11	3	1	-0.24834666	2.4610762	3.550543	2.8646027
12	3	1	-0.14605461	1.4103098	3.7990917	3.6643561
13	3	4	0.21164253	0.89242854	4.7495789	3.6165206
14	3	1	-0.37107489	0.93910796	2.7734801	4.6178919
15	3	4	0.2133055	0.096600356	3.0007085	5.2595196
16	3	1	0.22583331	1.5312303	1.5691059	4.673704
17	3	3	-0.47191623	1.0611666	0.58970171	5.6165829
18	3	1	0.81614345	1.1100343	-0.82536491	5.3986851
19	3	2	-0.55954695	1.3942211	-1.3049379	4.2701713
20	3	6	0.32349485	0.58367017	0.92006093	6.4850937
21	3	1	-0.37107489	2.7000491	1.2989959	3.7957922
22	3	4	0.21330547	3.2315025	0.3585698	3.8598933
23	3	1	-0.14605463	3.1323729	2.2315275	2.9386026
24	3	4	0.21164253	3.9874157	2.0221075	2.3075923
25	3	7	0.12424037	4.0175621	4.4747636	1.7046466
26	3	7	0.12424037	2.7500226	5.6015118	2.2438832
27	3	1	-0.1460546	2.7555546	3.429348	-0.45400185
28	3	4	0.21164253	3.6762321	2.8967965	-0.25103426
29	3	1	-0.38340983	2.108683	3.21683	-1.6065144
30	3	4	0.2133055	2.5089153	2.4974124	-2.3073742
31	3	6	0.31944507	-0.92337177	3.8279392	-3.120856
32	4	8	-0.48485267	0.86947368	-1.4690024	6.1766153
33	4	5	0.10313172	1.1826847	-0.78631174	7.3611027
34	4	5	-0.0127497	0.86699325	-1.6588975	8.6048688
35	4	5	-0.15816038	1.2154993	-0.83150345	9.8634452
36	4	7	0.091699746	0.62143789	0.10740257	9.8912566
37	4	7	0.091699746	0.99877179	-1.397783	10.79392
38	4	7	0.091699746	2.2934476	-0.56111848	9.8669838
39	4	5	0.0084186871	-0.64636526	-2.0046288	8.6039445
40	4	8	-0.12405166	-1.0238647	-2.6472729	9.7920365
41	4	9	0.11855574	-1.2439886	-1.0704349	8.4959946
42	4	9	0.11855574	-0.88357902	-2.6629131	7.7373041
43	4	5	0.066959631	1.7369827	-2.9488703	8.551921
44	4	3	-0.71428699	1.5359858	-3.7911625	9.7584653
45	4	5	0.087049317	2.7708275	-3.8982934	10.554027
46	4	9	0.078993757	3.5757144	-4.4079195	9.9797067
47	4	9	0.078993757	3.1239892	-2.8877812	10.852636
48	4	9	0.078993757	2.5750636	-4.4662827	11.489462
49	4	5	0.087049317	1.0554503	-5.1369754	9.4038004
50	4	9	0.078993757	0.10042863	-5.0651462	8.8418225
51	4	9	0.078993757	0.85224636	-5.726614	10.323299
52	4	9	0.078993757	1.8027678	-5.677574	8.7812775
53	4	9	0.098831114	1.4907507	-3.5083397	7.6197575
54	4	9	0.098831114	2.8062244	-2.6571133	8.4312806
55	4	9	0.10907931	2.2630119	-0.51447362	7.3532734
56	4	9	0.10907931	0.59727046	0.16017587	7.4035683
57	1	1	0.56984698	0.12057015	3.1290496	-5.2211695
58	1	2	-0.61920637	-1.0582006	2.7373314	-5.0178238
59	1	3	-0.50946451	0.6470285	3.2524741	-6.5496694
60	1	1	0.2022378	-0.014479708	2.7792518	-7.736635
61	1	1	-0.3834098	-0.73560756	1.6421459	-7.7397894
62	1	4	0.21330548	-0.83373933	1.0400299	-6.8473122
63	1	1	-0.14605463	-1.3729595	1.1655558	-8.984851
64	1	4	0.21164255	-1.9451987	0.24638333	-8.9623297
65	1	1	-0.24834662	-1.2346105	1.8593244	-10.127607
66	1	5	-0.05170701	-1.8433759	1.3605786	-11.409191
67	1	1	-0.26306129	-0.88709729	0.43886325	-12.116226
68	1	1	-0.19087893	0.026071856	0.92282078	-12.975875
69	1	4	0.19756792	0.071406243	1.9828462	-13.194631
70	1	1	-0.26431588	0.98873714	0.015409002	-13.632595
71	1	4	0.20555234	1.7045661	0.43744176	-14.326905
72	1	1	0.439365	0.96991369	-1.307935	-13.365244
73	1	3	-0.36201534	1.8845479	-2.2328802	-13.975406
74	1	10	0.61428368	2.7850029	-1.9038268	-14.81415
75	1	2	-0.32529933	3.6602136	-1.5845352	-15.629603
76	1	1	-0.26431591	-0.02621936	-1.8345176	-12.406131
77	1	4	0.20555235	-0.046091627	-2.892712	-12.178031
78	1	1	-0.19087898	-0.90121342	-1.0119959	-11.814137
79	1	4	0.19756795	-1.6199759	-1.4127141	-11.110767
80	1	7	0.12424037	-2.7975265	0.8267057	-11.201995
81	1	7	0.12424037	-2.1045184	2.2211594	-12.064253
82	1	1	-0.1460546	-0.40970463	3.0907761	-10.133779
83	1	4	0.21164253	-0.26809085	3.645426	-11.052606
84	1	1	-0.38340983	0.16769112	3.5224581	-9.0062315
85	1	4	0.2133055	0.7679762	4.4226472	-9.0225834
86	1	6	0.31944501	1.5208499	3.8127471	-6.6643009
87	2	8	-0.12358295	-1.9903342	-2.8513108	9.7012882
88	2	5	0.018395977	-2.0917916	-4.2492615	9.6415783
89	2	5	-0.04671324	-3.5705234	-4.6937223	9.4937408
90	2	5	-0.15101309	-3.5988156	-6.2400177	9.4591443
91	2	7	0.091505561	-3.1620857	-6.6594734	10.390662
92	2	7	0.091505561	-4.636	-6.6240757	9.3669166
93	2	7	0.091505561	-3.0114786	-6.6220308	8.5962844
94	2	5	0.072251525	-4.3738787	-4.1804445	10.719892
95	2	11	-0.66663003	-5.6786869	-4.6946695	10.726821
96	2	12	0.39964911	-6.1254936	-4.3035682	11.52164
97	2	9	0.10578602	-3.8605379	-4.4884006	11.658383
98	2	9	0.10578602	-4.4167467	-3.0674477	10.703474
99	2	5	0.077802588	-4.1429119	-4.1153644	8.165773
100	2	3	-0.71453888	-5.5360302	-4.5721055	7.9290731
101	2	5	0.087049317	-5.6326716	-5.411914	6.7240789
102	2	9	0.078993757	-5.3598301	-4.836833	5.8114863
103	2	9	0.078993757	-4.9568785	-6.2901	6.8128823
104	2	9	0.078993757	-6.6660922	-5.8038645	6.6120133
105	2	5	0.087049317	-6.464774	-3.4350966	7.8173425
106	2	9	0.078993757	-6.4299675	-2.8216458	8.7435669
107	2	9	0.078993757	-7.5074417	-3.8010626	7.704728
108	2	9	0.078993757	-6.2070977	-2.7905478	6.9472265
109	2	9	0.09875096	-4.0793519	-3.0035089	8.2043804
110	2	9	0.09875096	-3.4691536	-4.4088482	7.3270365
111	2	9	0.11864846	-1.4954696	-4.6237905	8.7775968
112	2	9	0.11864846	-1.654889	-4.6875805	10.568082
113	3	1	0.56984692	-3.9469301	2.0207019	35.681692
114	3	2	-0.61920631	-5.0298237	1.4747515	35.341089
115	3	3	-0.50946457	-3.1423378	2.732015	34.733896
116	3	1	0.20223778	-3.3562799	2.7090974	33.312348
117	3	1	-0.38340974	-3.0277817	3.7826088	32.574784
118	3	4	0.21330548	-2.6261834	4.6706679	33.04718
119	3	1	-0.14605463	-3.2246005	3.7776419	31.109964
120	3	4	0.21164255	-2.9529696	4.6581925	30.54106
121	3	1	-0.24834662	-3.7300311	2.6935766	30.497795
122	3	5	-0.05170701	-3.8965203	2.6622281	29.00228
123	3	1	-0.24834666	-2.6437599	2.1431653	28.351156
124	3	1	-0.14605461	-1.6568434	2.9818736	27.993307
125	3	4	0.21164253	-1.757606	4.0499615	28.144801
126	3	1	-0.37107489	-0.41243943	2.4573922	27.393708
127	3	4	0.2133055	0.36478333	3.1538153	27.103781
128	3	1	0.22583331	-0.23689341	1.1357159	27.230624
129	3	3	-0.47191623	0.97910283	0.64889321	26.636006
130	3	1	0.81614345	1.5805208	-0.61237207	26.951898
131	3	2	-0.55954695	1.1822888	-1.3021963	27.9265
132	3	6	0.32349485	1.505844	1.2770522	25.988387
133	3	1	-0.37107489	-1.3335544	0.20963584	27.617323
134	3	4	0.21330547	-1.2423472	-0.85471816	27.44474
135	3	1	-0.14605463	-2.4643631	0.68574558	28.152005
136	3	4	0.21164253	-3.2563978	-0.00047797203	28.425697
137	3	7	0.12424037	-4.7547564	2.0091584	28.73595
138	3	7	0.12424037	-4.144699	3.6766992	28.617073
139	3	1	-0.1460546	-4.0520833	1.4898377	31.301467
140	3	4	0.21164253	-4.4182921	0.5950217	30.813974
141	3	1	-0.38340983	-3.8738475	1.4946246	32.628155
142	3	4	0.2133055	-4.0797949	0.59290904	33.188018
143	3	6	0.31944507	-2.4022658	3.3618466	35.119735
144	4	8	-0.48485267	2.3859098	-0.94759519	26.389503
145	4	5	0.10313172	2.2386925	-0.37826977	25.116171
146	4	5	-0.0127497	3.3932479	-0.81512557	24.175863
147	4	5	-0.15816038	3.1726943	-0.13086036	22.807218
148	4	7	0.091699746	3.1651718	0.97485236	22.919333
149	4	7	0.091699746	3.9772934	-0.39348155	22.088137
150	4	7	0.091699746	2.2009753	-0.44228648	22.366912
151	4	5	0.0084186871	4.741729	-0.34844989	24.787089
152	4	8	-0.12405166	5.806215	-0.5642296	23.899751
153	4	9	0.11855574	4.6885633	0.7386103	25.025833
154	4	9	0.11855574	4.9365655	-0.8967556	25.736865
155	4	5	0.066959631	3.3563764	-2.3631656	24.014842
156	4	3	-0.71428699	4.3926938	-2.8364002	23.062109
157	4	5	0.087049317	3.7880868	-3.4539863	21.869521
158	4	9	0.078993757	3.2090553	-4.364848	22.138704
159	4	9	0.078993757	3.1114134	-2.7315311	21.364351
160	4	9	0.078993757	4.5791679	-3.7280323	21.138041
161	4	5	0.087049317	5.317893	-3.7882381	23.699232
162	4	9	0.078993757	5.811058	-3.3135833	24.573609
163	4	9	0.078993757	6.1198041	-4.078979	22.987297
164	4	9	0.078993757	4.7812119	-4.7024133	24.037643
165	4	9	0.098831114	3.4833458	-2.8303354	25.018932
166	4	9	0.098831114	2.334048	-2.666942	23.690006
167	4	9	0.10907931	1.2601359	-0.69102627	24.685272
168	4	9	0.10907931	2.2260911	0.73134269	25.210794
169	1	1	0.56984698	-3.6411799	1.9841342	36.718665
170	1	2	-0.61920637	-2.4521076	2.2676007	37.018743
171	1	3	-0.50946451	-4.6091506	1.6637998	37.727487
172	1	1	0.2022378	-4.2996644	1.4488167	39.116163
173	1	1	-0.3834098	-3.1628024	0.83921029	39.502129
174	1	4	0.21330548	-2.4460684	0.48159053	38.77612
175	1	1	-0.14605463	-2.8920597	0.60215076	40.93532
176	1	4	0.21164255	-1.9719785	0.10702983	41.220186
177	1	1	-0.24834662	-3.7803033	0.98763233	41.8674
178	1	5	-0.05170701	-3.534094	0.7128037	43.325362
179	1	1	-0.26306129	-4.0701877	-0.64283981	43.697867
180	1	1	-0.19087893	-5.3460269	-0.7929577	44.093833
181	1	4	0.19756792	-6.0029883	0.064379134	44.177129
182	1	1	-0.26431588	-5.8755272	-2.133501	44.416283
183	1	4	0.20555234	-6.9050296	-2.2171613	44.741421
184	1	1	0.439365	-5.0867915	-3.2235328	44.303161
185	1	3	-0.36201534	-5.5527183	-4.5492424	44.6028
186	1	10	0.61428368	-6.7319747	-4.8229146	44.999087
187	1	2	-0.32529933	-7.8779811	-5.0894005	45.384522
188	1	1	-0.26431591	-3.6877291	-3.0560437	43.851452
189	1	4	0.20555235	-3.0479342	-3.9235132	43.749673
190	1	1	-0.19087898	-3.2071448	-1.8401053	43.563103
191	1	4	0.19756795	-2.1828362	-1.7356412	43.228733
192	1	7	0.12424037	-2.4452279	0.76197979	43.549652
193	1	7	0.12424037	-4.01524	1.5012119	43.945694
194	1	1	-0.1460546	-5.049133	1.6245168	41.441454
195	1	4	0.21164253	-5.7852429	1.916445	42.179595
196	1	1	-0.38340983	-5.2945145	1.8391648	40.14345
197	1	4	0.2133055	-6.22435	2.3046648	39.844008
198	1	6	0.31944501	-5.614578	1.6888698	37.446245
199	2	8	-0.12358295	6.6251164	-0.2627705	24.3714
200	2	5	0.018395977	7.3934997	-1.4145283	24.5976
201	2	5	-0.04671324	8.7104636	-1.0675068	25.340049
202	2	5	-0.15101309	9.5071143	-2.3799693	25.529303
203	2	7	0.091505561	9.730943	-2.8461242	24.545941
204	2	7	0.091505561	10.471961	-2.1970298	26.046374
205	2	7	0.091505561	8.9236836	-3.106966	26.134704
206	2	5	0.072251525	9.5303717	-0.075471264	24.470625
207	2	11	-0.66663003	10.806014	0.14296711	25.011016
208	2	12	0.39964911	11.250455	0.79870439	24.413677
209	2	9	0.10578602	9.6406465	-0.4840178	23.441038
210	2	9	0.10578602	8.9904931	0.89607882	24.396527
211	2	5	0.077802588	8.362457	-0.44503465	26.724623
212	2	3	-0.71453888	9.5860804	-0.16239738	27.517264
213	2	5	0.087049317	9.6378371	-0.97770043	28.741695
214	2	9	0.078993757	8.791963	-0.73366138	29.422083
215	2	9	0.078993757	9.5947334	-2.0585578	28.485409
216	2	9	0.078993757	10.596364	-0.80580657	29.276317
217	2	5	0.087049317	9.6847751	1.2645029	27.866625
218	2	9	0.078993757	9.6919207	1.8836487	26.943569
219	2	9	0.078993757	10.637026	1.4632137	28.402817
220	2	9	0.078993757	8.8311617	1.5807344	28.507159
221	2	9	0.09875096	7.761279	0.47857067	26.559422
222	2	9	0.09875096	7.6759888	-1.1369383	27.266465
223	2	9	0.11864846	6.7988744	-2.1397865	25.199893
224	2	9	0.11864846	7.6249272	-1.8975103	23.62057
225	3	1	0.56984692	0.60753998	1.6802331	59.214325
226	3	2	-0.61920631	1.7058288	1.2112333	58.81366
227	3	3	-0.50946457	0.52921261	2.4831405	60.397903
228	3	1	0.20223778	1.6046944	2.6453649	61.338178
229	3	1	-0.38340974	1.7171354	3.7939163	62.025582
230	3	4	0.21330548	1.0181078	4.6041078	61.858136
231	3	1	-0.14605463	2.8054558	3.9789284	63.008329
232	3	4	0.21164255	2.87292	4.9164245	63.546245
233	3	1	-0.24834662	3.6930724	2.9948053	63.229793
234	3	5	-0.05170701	4.7806569	3.156698	64.257517
235	3	1	-0.24834666	4.2970103	2.6899139	65.603249
236	3	1	-0.14605461	3.6890935	3.5398523	66.447959
237	3	4	0.21164253	3.5595662	4.5826808	66.184053
238	3	1	-0.37107489	3.179369	3.0614296	67.749663
239	3	4	0.2133055	2.7021392	3.767419	68.41822
240	3	1	0.22583331	3.2853218	1.7665536	68.090707
241	3	3	-0.47191623	2.7901818	1.325621	69.367276
242	3	1	0.81614345	2.259053	0.018704669	69.616581
243	3	2	-0.55954695	2.0086748	-0.77733202	68.674279
244	3	6	0.32349485	2.7396578	2.0158063	70.149927
245	3	1	-0.37107489	3.9672432	0.82932445	67.159895
246	3	4	0.21330547	4.117167	-0.2068839	67.433296
247	3	1	-0.14605463	4.4370088	1.2648672	65.984771
248	3	4	0.21164253	4.9348671	0.57144112	65.318118
249	3	7	0.12424037	5.6713189	2.5659987	63.954537
250	3	7	0.12424037	5.1125047	4.2179988	64.308961
251	3	1	-0.1460546	3.5467104	1.7086074	62.506698
252	3	4	0.21164253	4.2291559	0.8926545	62.709042
253	3	1	-0.38340983	2.5610066	1.5413286	61.616587
254	3	4	0.2133055	2.451494	0.58219544	61.129737
255	3	6	0.31944507	-0.34564621	3.0389529	60.5356
256	4	8	-0.48485267	2.0403527	-0.26477707	70.59081
257	4	5	0.10313172	2.909567	0.46425579	71.415525
258	4	5	-0.0127497	2.6774492	0.11810561	72.91029
259	4	5	-0.15816038	3.6517698	0.97512567	73.750688
260	4	7	0.091699746	3.4726311	2.0576892	73.574074
261	4	7	0.091699746	3.5265785	0.78340528	74.837424
262	4	7	0.091699746	4.7052869	0.74823047	73.479186
263	4	5	0.0084186871	1.2117971	0.46716205	73.2842
264	4	8	-0.12405166	0.99171786	0.33602016	74.663122
265	4	9	0.11855574	0.98822655	1.5165148	72.983534
266	4	9	0.11855574	0.51136903	-0.20155178	72.73384
267	4	5	0.066959631	2.9669326	-1.3957234	73.129918
268	4	3	-0.71428699	2.8365001	-1.7731647	74.560348
269	4	5	0.087049317	4.1235778	-2.2188638	75.120717
270	4	9	0.078993757	4.4851459	-3.1402832	74.613114
271	4	9	0.078993757	4.8882979	-1.4203623	75.008362
272	4	9	0.078993757	4.0177851	-2.4199832	76.208987
273	4	5	0.087049317	1.8215516	-2.8225268	74.751745
274	4	9	0.078993757	0.83768942	-2.4754357	74.371498
275	4	9	0.078993757	1.6967066	-3.0429595	75.833533
276	4	9	0.078993757	2.1068899	-3.7571083	74.219387
277	4	9	0.098831114	2.2750918	-1.988975	72.488066
278	4	9	0.098831114	3.9842543	-1.6282052	72.737537
279	4	9	0.10907931	3.9624021	0.23504217	71.132571
280	4	9	0.10907931	2.7450972	1.553029	71.248568
281	1	1	0.56984698	-0.28548923	1.5049805	58.629587
282	1	2	-0.61920637	-1.4118146	1.7159029	59.150352
283	1	3	-0.50946451	-0.16184934	1.0865466	57.26323
284	1	1	0.2022378	-1.2646869	0.68994801	56.428438
285	1	1	-0.3834098	-2.3149365	0.0058481512	56.920401
286	1	4	0.21330548	-2.3590886	-0.27681333	57.962919
287	1	1	-0.14605463	-3.4145274	-0.4171973	56.028512
288	1	4	0.21164255	-4.2467212	-0.96912677	56.447643
289	1	1	-0.24834662	-3.3746178	-0.12820478	54.716553
290	1	5	-0.05170701	-4.4675321	-0.59115775	53.792965
291	1	1	-0.26306129	-4.1593271	-1.9678359	53.269808
292	1	1	-0.19087893	-3.4262914	-2.1318682	52.15498
293	1	4	0.19756792	-3.0671889	-1.274299	51.598937
294	1	1	-0.26431588	-3.0925975	-3.4874442	51.672836
295	1	4	0.20555234	-2.5085289	-3.5833539	50.766053
296	1	1	0.439365	-3.5091192	-4.5755953	52.355116
297	1	3	-0.36201534	-3.2107306	-5.9153173	51.93028
298	1	10	0.61428368	-2.5387898	-6.2045425	50.88748
299	1	2	-0.32529933	-1.885946	-6.4861788	49.873882
300	1	1	-0.26431591	-4.3020407	-4.3906666	53.590651
301	1	4	0.20555235	-4.6352032	-5.2554876	54.150372
302	1	1	-0.19087898	-4.6075907	-3.1616213	54.025047
303	1	4	0.19756795	-5.1839214	-3.0437767	54.933826
304	1	7	0.12424037	-5.4450863	-0.60029323	54.324621
305	1	7	0.12424037	-4.5791067	0.12560104	52.949337
306	1	1	-0.1460546	-2.2010959	0.59157545	54.167241
307	1	4	0.21164253	-2.143245	0.80809215	53.108134
308	1	1	-0.38340983	-1.2050852	0.97467129	54.974891
309	1	4	0.2133055	-0.35310324	1.4993292	54.56281
310	1	6	0.31944501	0.78106273	1.1742138	56.822956
311	2	8	-0.12358295	0.035482391	0.55324157	74.81265
312	2	5	0.018395977	-0.57651447	-0.63832379	75.229492
313	2	5	-0.04671324	-2.0899653	-0.42360052	75.492948
314	2	5	-0.15101309	-2.6833891	-1.7706436	75.968711
315	2	7	0.091505561	-2.1764228	-2.1150891	76.895395
316	2	7	0.091505561	-3.767691	-1.6806489	76.187682
317	2	7	0.091505561	-2.5525683	-2.5519789	75.189079
318	2	5	0.072251525	-2.2588447	0.64739437	76.605032
319	2	11	-0.66663003	-3.5983034	0.76119348	77.004907
320	2	12	0.39964911	-3.6211933	1.4746314	77.693976
321	2	9	0.10578602	-1.6417265	0.36899222	77.488649
322	2	9	0.10578602	-1.8997658	1.6348698	76.235136
323	2	5	0.077802588	-2.7752982	0.028681811	74.169549
324	2	3	-0.71453888	-4.2432489	0.17577424	74.339556
325	2	5	0.087049317	-4.983326	-0.78842337	73.509353
326	2	9	0.078993757	-4.8000375	-0.60913104	72.42665
327	2	9	0.078993757	-4.6758714	-1.8267941	73.760452
328	2	9	0.078993757	-6.0729263	-0.71142182	73.711798
329	2	5	0.087049317	-4.6880092	1.544059	74.02679
330	2	9	0.078993757	-4.1656946	2.274157	74.682205
331	2	9	0.078993757	-5.7765793	1.6476268	74.221874
332	2	9	0.078993757	-4.4806915	1.800174	72.963603
333	2	9	0.09875096	-2.3063153	0.98176086	73.832728
334	2	9	0.09875096	-2.5289291	-0.70703966	73.368564
335	2	9	0.11864846	-0.43535951	-1.4172389	74.444825
336	2	9	0.11864846	-0.07766738	-1.0004608	76.157621
337	3	1	0.56984692	2.9126646	1.0367705	92.113369
338	3	2	-0.61920631	3.1520768	-0.08132537	91.584904
339	3	3	-0.50946457	3.2799962	1.3119853	93.470195
340	3	1	0.20223778	3.7343894	0.31688613	94.403146
341	3	1	-0.38340974	4.598482	0.66159392	95.372094
342	3	4	0.21330548	4.9713529	1.676272	95.439054
343	3	1	-0.14605463	5.0687279	-0.34007982	96.351879
344	3	4	0.21164255	5.7672762	-0.034207009	97.120824
345	3	1	-0.24834662	4.6307416	-1.6087067	96.287366
346	3	5	-0.05170701	5.0710286	-2.6271962	97.30427
347	3	1	-0.24834666	4.1355231	-2.6227565	98.482237
348	3	1	-0.14605461	4.3575349	-1.8156465	99.53332
349	3	4	0.21164253	5.2288144	-1.1722148	99.561295
350	3	1	-0.37107489	3.4093505	-1.7876307	100.66615
351	3	4	0.2133055	3.614949	-1.1365131	101.50693
352	3	1	0.22583331	2.2973582	-2.5408047	100.6451
353	3	3	-0.47191623	1.393543	-2.5041111	101.76358
354	3	1	0.81614345	-0.022415848	-2.6957536	101.66055
355	3	2	-0.55954695	-0.60095902	-2.717017	100.5429
356	3	6	0.32349485	1.7707713	-2.2480216	102.70356
357	3	1	-0.37107489	2.0581119	-3.4409606	99.486523
358	3	4	0.21330547	1.200313	-4.1003791	99.469164
359	3	1	-0.14605463	2.921896	-3.4728848	98.464686
360	3	4	0.21164253	2.7366014	-4.136281	97.628803
361	3	7	0.12424037	5.0836075	-3.6364501	96.84032
362	3	7	0.12424037	6.1142571	-2.4220022	97.633965
363	3	1	-0.1460546	3.6424215	-1.9837367	95.247574
364	3	4	0.21164253	3.2486211	-2.9917916	95.212925
365	3	1	-0.38340983	3.216763	-1.0763696	94.360223
366	3	4	0.2133055	2.4677183	-1.3633259	93.635281
367	3	6	0.31944507	3.2833653	2.3150503	93.765348
368	4	8	-0.48485267	-0.58905056	-2.7810968	102.52597
369	4	5	0.10313172	0.26549485	-3.3124022	103.50303
370	4	5	-0.0127497	-0.47826471	-3.4913388	104.85315
371	4	5	-0.15816038	0.53208656	-4.0558638	105.87812
372	4	7	0.091699746	1.3924541	-3.3632241	106.00159
373	4	7	0.091699746	0.063189289	-4.1955254	106.87514
374	4	7	0.091699746	0.92338884	-5.0394798	105.53977
375	4	5	0.0084186871	-0.9937425	-2.1066074	105.32916
376	4	8	-0.12405166	-1.5248165	-2.1776375	106.6253
377	4	9	0.11855574	-0.15510562	-1.3729897	105.3249
378	4	9	0.11855574	-1.7764239	-1.733441	104.63
379	4	5	0.066959631	-1.6559363	-4.4898233	104.65357
380	4	3	-0.71428699	-2.3611764	-4.7625907	105.93179
381	4	5	0.087049317	-2.2266124	-6.173512	106.33232
382	4	9	0.078993757	-2.7066434	-6.8492021	105.59041
383	4	9	0.078993757	-1.153133	-6.4449527	106.42711
384	4	9	0.078993757	-2.6941674	-6.3347002	107.328
385	4	5	0.087049317	-3.7867408	-4.4035544	105.84949
386	4	9	0.078993757	-3.8951324	-3.3289987	105.59137
387	4	9	0.078993757	-4.2784511	-4.5563567	106.83402
388	4	9	0.078993757	-4.3098628	-5.0155873	105.08136
389	4	9	0.098831114	-2.350304	-4.0751878	103.88643
390	4	9	0.098831114	-1.2598243	-5.4270382	104.19785
391	4	9	0.10907931	0.65710764	-4.2948554	103.15305
392	4	9	0.10907931	1.1361329	-2.630987	103.63725
393	1	1	0.56984698	2.4569226	1.8154116	91.516585
394	1	2	-0.61920637	1.9598022	2.8185522	92.091801
395	1	3	-0.50946451	2.4761391	1.7089317	90.086342
396	1	1	0.2022378	1.7875839	2.6018021	89.192421
397	1	1	-0.3834098	0.58316288	3.1203285	89.498273
398	1	4	0.21330548	0.087955381	2.8736932	90.427052
399	1	1	-0.14605463	-0.11306101	4.0061865	88.542207
400	1	4	0.21164255	-1.082336	4.4081363	88.810135
401	1	1	-0.24834662	0.44638723	4.2986657	87.355691
402	1	5	-0.05170701	-0.27286385	5.1644811	86.358273
403	1	1	-0.26306129	-1.1579282	4.3224574	85.479875
404	1	1	-0.19087893	-0.68113731	3.7697405	84.351042
405	1	4	0.19756792	0.34209183	3.9433337	84.040509
406	1	1	-0.26431588	-1.5451859	2.9095604	83.517428
407	1	4	0.20555234	-1.1318909	2.4882848	82.609517
408	1	1	0.439365	-2.8189414	2.6586493	83.888454
409	1	3	-0.36201534	-3.700095	1.8283202	83.114827
410	1	10	0.61428368	-3.3748921	1.2591294	82.02265
411	1	2	-0.32529933	-3.0593629	0.70588048	80.960924
412	1	1	-0.26431591	-3.3351016	3.2557534	85.140059
413	1	4	0.20555235	-4.3524409	3.0556487	85.451794
414	1	1	-0.19087898	-2.5525658	4.0386539	85.893264
415	1	4	0.19756795	-2.9440766	4.4632701	86.808876
416	1	7	0.12424037	-0.88372188	5.9327771	86.882608
417	1	7	0.12424037	0.46482853	5.7225912	85.74003
418	1	1	-0.1460546	1.754631	3.6981513	87.002334
419	1	4	0.21164253	2.2048307	3.9040523	86.039599
420	1	1	-0.38340983	2.3852389	2.8957257	87.868097
421	1	4	0.2133055	3.3397949	2.4626688	87.599332
422	1	6	0.31944501	3.1151225	0.99455591	89.67164
423	2	8	-0.12358295	-1.8485721	-1.265437	106.8421
424	2	5	0.018395977	-3.2455713	-1.3566526	106.93264
425	2	5	-0.04671324	-3.8724172	0.022253859	107.2669
426	2	5	-0.15101309	-5.4041153	-0.16709591	107.37214
427	2	7	0.091505561	-5.6527791	-0.90521574	108.16444
428	2	7	0.091505561	-5.913656	0.78627142	107.62357
429	2	7	0.091505561	-5.8188939	-0.53647873	106.40936
430	2	5	0.072251525	-3.3085485	0.51318738	108.62827
431	2	11	-0.66663003	-3.9650884	1.6733346	109.06418
432	2	12	0.39964911	-3.5334976	1.9299825	109.91986
433	2	9	0.10578602	-3.4376129	-0.28325104	109.39518
434	2	9	0.10578602	-2.2184281	0.72108928	108.53192
435	2	5	0.077802588	-3.5314667	1.0240367	106.12418
436	2	3	-0.71453888	-4.1714556	2.3450313	106.34959
437	2	5	0.087049317	-5.1584083	2.653809	105.30211
438	2	9	0.078993757	-4.6721659	2.7365053	104.30475
439	2	9	0.078993757	-5.9351724	1.859653	105.26031
440	2	9	0.078993757	-5.6777311	3.6080492	105.53421
441	2	5	0.087049317	-3.1715652	3.4233221	106.4227
442	2	9	0.078993757	-2.4491069	3.2187255	107.24223
443	2	9	0.078993757	-3.6664093	4.3902819	106.65484
444	2	9	0.078993757	-2.6133806	3.5185687	105.46442
445	2	9	0.09875096	-2.4234355	1.1153365	106.04879
446	2	9	0.09875096	-3.8460496	0.57883983	105.15135
447	2	9	0.11864846	-3.6520741	-1.7331453	105.96551
448	2	9	0.11864846	-3.5134247	-2.0962782	107.72171
449	3	1	0.56984692	-4.7547732	2.2795825	130.93025
450	3	2	-0.61920631	-5.3029382	1.4118241	131.66049
451	3	3	-0.50946457	-4.3840682	1.9870185	129.57798
452	3	1	0.20223778	-4.3887313	0.66840381	129.00498
453	3	1	-0.38340974	-4.6350658	0.51606815	127.69332
454	3	4	0.21330548	-4.8527616	1.3764719	127.07252
455	3	1	-0.14605463	-4.6308323	-0.82786932	127.07828
456	3	4	0.21164255	-4.8351201	-0.92070079	126.01882
457	3	1	-0.24834662	-4.3736255	-1.9143928	127.82576
458	3	5	-0.05170701	-4.3263093	-3.2834436	127.20228
459	3	1	-0.24834666	-2.9338229	-3.5869232	126.72095
460	3	1	-0.14605461	-2.5500014	-3.2583233	125.47588
461	3	4	0.21164253	-3.2455067	-2.7916569	124.78856
462	3	1	-0.37107489	-1.1671113	-3.5218664	125.02721
463	3	4	0.2133055	-0.88397095	-3.2576692	124.01569
464	3	1	0.22583331	-0.26736417	-4.0601904	125.8668
465	3	3	-0.47191623	1.0706012	-4.3163689	125.40481
466	3	1	0.81614345	2.2335128	-4.2671906	126.23997
467	3	2	-0.55954695	2.182055	-3.8003893	127.40777
468	3	6	0.32349485	1.2256874	-4.4750895	124.38392
469	3	1	-0.37107489	-0.69593258	-4.4327937	127.2406
470	3	4	0.21330547	-0.0080172836	-4.9198619	127.91919
471	3	1	-0.14605463	-1.9511744	-4.2023272	127.64377
472	3	4	0.21164253	-2.2503757	-4.4823214	128.64637
473	3	7	0.12424037	-4.6382338	-4.0445105	127.94892
474	3	7	0.12424037	-5.0533082	-3.3537507	126.36224
475	3	1	-0.1460546	-4.0567254	-1.7475312	129.26462
476	3	4	0.21164253	-3.8044702	-2.6109004	129.86746
477	3	1	-0.38340983	-4.0607394	-0.53023514	129.82145
478	3	4	0.2133055	-3.7896153	-0.42940903	130.86322
479	3	6	0.31944507	-4.1696961	2.8021322	128.95919
480	4	8	-0.48485267	3.1456137	-4.5877583	125.86232
481	4	5	0.10313172	2.8489728	-5.5485285	124.88451
482	4	5	-0.0127497	4.1470829	-6.1094193	124.2455
483	4	5	-0.15816038	3.736644	-7.1390152	123.16776
484	4	7	0.091699746	3.1012319	-6.6605831	122.3915
485	4	7	0.091699746	4.6250727	-7.5708061	122.66015
486	4	7	0.091699746	3.1602271	-7.9727646	123.6235
487	4	5	0.0084186871	4.9277266	-4.9402551	123.58715
488	4	8	-0.12405166	6.0225424	-5.4102145	122.84716
489	4	9	0.11855574	4.2510574	-4.3743908	122.90638
490	4	9	0.11855574	5.287889	-4.2364993	124.3718
491	4	5	0.066959631	4.9981481	-6.7995042	125.35148
492	4	3	-0.71428699	6.2206863	-7.4255646	124.78663
493	4	5	0.087049317	6.2008616	-8.8895426	124.94665
494	4	9	0.078993757	6.2026477	-9.1761885	126.02147
495	4	9	0.078993757	5.2976877	-9.3167142	124.46
496	4	9	0.078993757	7.0859271	-9.3408443	124.44769
497	4	5	0.087049317	7.4414937	-6.875583	125.39906
498	4	9	0.078993757	7.484865	-5.7770318	125.24302
499	4	9	0.078993757	8.3425988	-7.3118721	124.91729
500	4	9	0.078993757	7.4722405	-7.0882755	126.49088
501	4	9	0.098831114	5.2511804	-6.0443682	126.13142
502	4	9	0.098831114	4.3629634	-7.548144	125.87972
503	4	9	0.10907931	2.2666252	-6.3769814	125.34884
504	4	9	0.10907931	2.2091589	-5.0857353	124.09914
505	1	1	0.56984698	-4.5985375	3.2758353	131.32166
506	1	2	-0.61920637	-3.8121209	4.0547954	130.72245
507	1	3	-0.50946451	-5.3284951	3.6993986	132.48143
508	1	1	0.2022378	-5.1088919	4.94064	133.17534
509	1	1	-0.3834098	-3.8768735	5.4658966	133.3142
510	1	4	0.21330548	-3.0069527	4.9640953	132.91405
511	1	1	-0.14605463	-3.6817864	6.7244735	134.06351
512	1	4	0.21164255	-2.6806471	7.1250673	134.16394
513	1	1	-0.24834662	-4.7312891	7.3544262	134.61853
514	1	5	-0.05170701	-4.5380763	8.6127569	135.4192
515	1	1	-0.26306129	-4.2644145	8.2767076	136.86007
516	1	1	-0.19087893	-5.2741874	8.1181404	137.73317
517	1	4	0.19756792	-6.3020002	8.2560237	137.41988
518	1	1	-0.26431588	-4.9979434	7.7461684	139.13557
519	1	4	0.20555234	-5.8342792	7.6361072	139.81455
520	1	1	0.439365	-3.7286353	7.5481583	139.55117
521	1	3	-0.36201534	-3.4058335	7.1839619	140.90303
522	1	10	0.61428368	-4.2672914	7.0169061	141.82638
523	1	2	-0.32529933	-5.1041998	6.8546551	142.72424
524	1	1	-0.26431591	-2.6209873	7.7078318	138.58313
525	1	4	0.20555235	-1.5995808	7.5443115	138.9028
526	1	1	-0.19087898	-2.8717664	8.0489224	137.31294
527	1	4	0.19756795	-2.0502764	8.1563472	136.61614
528	1	7	0.12424037	-3.6949479	9.2091874	135.00476
529	1	7	0.12424037	-5.4427241	9.2554105	135.33852
530	1	1	-0.1460546	-6.0826043	6.7572987	134.49867
531	1	4	0.21164253	-6.9331741	7.2400049	134.96284
532	1	1	-0.38340983	-6.2594068	5.6173582	133.82016
533	1	4	0.2133055	-7.2504221	5.1903775	133.73937
534	1	6	0.31944501	-6.1380579	3.1087115	132.77521