Title

88 atoms
89 bonds
168 angles
344 dihedrals
18 impropers

11 atom types
14 bond types
9 angle types
35 dihedral types
3 improper types
-12.50599957 87.49400043 xlo xhi
-2.693000078 97.30699992 ylo yhi
-7.673999786 92.32600021 zlo zhi
0.0 0.0 0.0 xy xz yz

Masses

1	12.01078
2	15.99943
3	14.00672
4	12.01078
5	1.007947
6	1.007947
7	1.007947
8	15.99943
9	12.01078
10	15.99943
11	1.007947


Pair Coeffs

1	0.086879315	3.4806469
2	0.2102061	3.0398122
3	0.16769152	3.206876
4	0.10884061	3.3795318
5	0.014090815	1.1034277
6	0.016409246	2.5832257
7	0.015779483	2.6445434
8	0.16846514	3.0251065
9	0.21	3.3996695
10	0.20947353	2.99716
11	1.2326e-05	0.53453923

Bond Coeffs

1 harmonic	582.698766451	1.225198386222
2 harmonic	492.76746816345	1.381897776683
3 harmonic	279.1350963404	1.454628925034
4 harmonic	352.0565580496	1.450098586273
5 harmonic	505.144496193	1.019481865027
6 harmonic	264.62148576755	1.52190126495
7 harmonic	370.04670688625	1.093899492634
8 harmonic	301.15400723785	1.345741232799
9 harmonic	366.7408841747	1.425895053732
10 harmonic	300.03137914615	1.451203938761
11 harmonic	366.34047229585	1.464762957261
12 harmonic	602.81384337	1.196112346392
13 harmonic	329.96998057905	1.427343958716
14 harmonic	543.5267831885	0.9716763312559


Angle Coeffs

1 harmonic	55.42182150775	117.3465570514
2 harmonic	63.44422595415	115.5071327674
3 harmonic	57.8982893754	126.8062420451
4 harmonic	53.20531626545	116.5475862634
5 harmonic	65.09061609600001	110.3538806181
6 harmonic	201.41175231035	127.4691416191
7 harmonic	48.776492647595	115.6030999533
8 harmonic	55.07882548015	112.8714009681
9 harmonic	33.56981613361	180


Dihedral Coeffs

1 fourier 1	-0.1488678166443	4	180
2 fourier 1	-0.1230328948768	3	180
3 fourier 1	0.2939295466901	2	0
4 fourier 1	-0.3024127022865	1	0
5 fourier 1	0.182238503271	2	0
6 fourier 1	0.02972342374561	3	0
7 fourier 1	1.809047390003	2	180
8 fourier 1	-0.04816277792592	1	0
9 fourier 1	3.101948770557	2	180
10 fourier 1	-0.4252153282372	1	0
11 fourier 1	2.348375642009	2	180
12 fourier 1	1.256156174911	1	0
13 fourier 1	0.9974165607242	2	180
14 fourier 1	0.1155372516788	3	0
15 fourier 1	0.09223874044423	3	0
16 fourier 1	0.3159935921949	2	180
17 fourier 1	0.3247796806857	1	180
18 fourier 1	0.1040663847541	3	0
19 fourier 1	2.779853741805	2	180
20 fourier 1	0.0473758381877	3	0
21 fourier 1	0.1918272375143	3	0
22 fourier 1	0.9202179876409	1	180
23 fourier 1	0.4860993122944	2	180
24 fourier 1	0.8916986138746	1	0
25 fourier 1	1.163809172478	2	180
26 fourier 1	0.1679186987369	1	180
27 fourier 1	0.1911926717192	3	0
28 fourier 1	0.1115525666802	3	0
29 fourier 1	0.3432490222662	1	0
30 fourier 1	0.457973137376	1	0
31 fourier 1	-1.382973039546	1	0
32 fourier 1	0	1	0
33 fourier 1	0.3445382149273	3	0
34 fourier 1	0.1364556373303	1	0
35 fourier 1	0.3026390167484	3	0


Improper Coeffs

1 0.3333333333333333	-1	2
2 0.3666666666666667	-1	2
3 3.5	-1	2


Atoms

1	1	1	0.54390198	-4.6939998	1.331	-0.38600001
2	1	2	-0.680439	-5.1230001	1.428	0.79500002
3	1	3	-0.52112401	-3.4430001	0.69599998	-0.66100001
4	1	4	0.031603999	-2.6159999	0.13600001	0.40700001
5	1	4	-0.145206	-1.3329999	-0.479	-0.161
6	1	4	-0.14182	-0.45199999	-1.053	0.95899999
7	1	4	-0.14182	0.75700003	-1.8430001	0.42699999
8	1	4	-0.14391799	1.749	-1.023	-0.41800001
9	1	4	0.029924	2.3959999	0.12800001	0.36399999
10	1	3	-0.47825	3.4519999	0.76200002	-0.42399999
11	1	1	0.81340599	4.2150002	1.858	0.088
12	1	2	-0.60091501	3.9979999	2.3099999	1.244
13	1	5	0.32832599	3.668	0.42500001	-1.39
14	1	6	0.058786001	1.6289999	0.89200002	0.61000001
15	1	6	0.058786001	2.832	-0.264	1.309
16	1	7	0.089571998	1.249	-0.62900001	-1.3279999
17	1	7	0.089571998	2.55	-1.7130001	-0.75999999
18	1	7	0.088326998	1.301	-2.2809999	1.293
19	1	7	0.088326998	0.38800001	-2.6930001	-0.186
20	1	7	0.088326998	-0.114	-0.237	1.633
21	1	7	0.088326998	-1.063	-1.749	1.574
22	1	7	0.089571998	-0.77499998	0.31	-0.708
23	1	7	0.089571998	-1.602	-1.289	-0.875
24	1	6	0.055197999	-3.1960001	-0.64499998	0.94499999
25	1	6	0.055197999	-2.352	0.94400001	1.125
26	1	5	0.32036701	-3.1300001	0.63999999	-1.6569999
27	1	8	-0.52133799	4.9559999	2.2869999	-0.49700001
28	1	4	0.192546	4.5219998	2.207	-1.831
29	1	6	0.090138003	4.1069999	1.188	-2.016
30	1	4	-0.159491	5.7280002	2.411	-2.7820001
31	1	7	0.10558	6.6789999	2.319	-2.2130001
32	1	7	0.10558	5.7379999	1.596	-3.54
33	1	4	-0.148719	5.7189999	3.757	-3.5309999
34	1	7	0.104604	5.0279999	3.681	-4.4000001
35	1	7	0.104604	6.7329998	3.961	-3.938
36	1	4	0.074780002	5.2690001	4.9320002	-2.641
37	1	8	-0.129155	6.2740002	5.27	-1.717
38	1	6	0.094251998	5.1389999	5.8109999	-3.309
39	1	4	-0.148719	3.9130001	4.6750002	-1.929
40	1	7	0.104604	3.9979999	4.914	-0.84600002
41	1	7	0.104604	3.142	5.3610001	-2.3429999
42	1	4	-0.159491	3.4030001	3.2320001	-2.0810001
43	1	7	0.10558	2.9949999	3.089	-3.1059999
44	1	7	0.10558	2.5669999	3.0599999	-1.369
45	1	1	0.54390198	-5.2810001	1.734	-1.2
46	1	2	-0.680439	-5.3039999	1.13	-2.3050001
47	1	3	-0.52112401	-6.013	2.95	-1.011
48	1	4	0.031603999	-6.8260002	3.556	-2.0639999
49	1	4	-0.145206	-8.1389999	2.786	-2.2379999
50	1	4	-0.141637	-9.0120001	3.427	-3.3280001
51	1	4	-0.137436	-10.394	2.7650001	-3.4449999
52	1	4	-0.121623	-10.327	1.36	-4.0650001
53	1	4	0.18496101	-11.726	0.75800002	-4.27
54	1	3	-0.63582802	-12.506	1.5190001	-5.2420001
55	1	9	0.59375501	-12.193	1.558	-6.4749999
56	1	2	-0.46010599	-11.887	1.597	-7.6739998
57	1	6	0.033438001	-11.632	-0.29699999	-4.6100001
58	1	6	0.033438001	-12.269	0.75099999	-3.3010001
59	1	7	0.083199002	-9.7629995	0.68199998	-3.3900001
60	1	7	0.083199002	-9.7910004	1.397	-5.0380001
61	1	7	0.087043002	-10.874	2.7149999	-2.4430001
62	1	7	0.087043002	-11.027	3.415	-4.0879998
63	1	7	0.088326998	-9.1660004	4.4990001	-3.079
64	1	7	0.088326998	-8.4879999	3.381	-4.3080001
65	1	7	0.089571998	-7.9089999	1.7359999	-2.513
66	1	7	0.089571998	-8.6890001	2.7869999	-1.271
67	1	6	0.055197999	-6.2540002	3.572	-3.0179999
68	1	6	0.055197999	-7.053	4.6069999	-1.783
69	1	5	0.32036701	-5.9109998	3.4530001	-0.101
70	1	8	-0.129155	6.375	4.5100002	-1.085
71	1	4	0.075319	5.526	3.4860001	-1.538
72	1	6	0.094251998	4.54	3.927	-1.814
73	1	4	-0.14023501	5.289	2.4660001	-0.396
74	1	7	0.10488	5.6230001	2.898	0.57300001
75	1	7	0.10488	4.198	2.2780001	-0.294
76	1	4	-0.19597299	5.987	1.109	-0.60799998
77	1	7	0.107201	5.375	0.49399999	-1.304
78	1	7	0.107201	6.0320001	0.56	0.35800001
79	1	4	0.128088	7.4060001	1.253	-1.191
80	1	10	-0.70212698	8.2980003	1.7410001	-0.219
81	1	11	0.39826599	8.0299997	2.6700001	0.001
82	1	6	0.075558998	7.7509999	0.23	-1.4579999
83	1	4	-0.19597299	7.4520001	2.1170001	-2.4809999
84	1	7	0.107201	8.2580004	2.8800001	-2.401
85	1	7	0.107201	7.7129998	1.473	-3.349
86	1	4	-0.14023501	6.1240001	2.826	-2.793
87	1	7	0.10488	5.3979998	2.0910001	-3.2030001
88	1	7	0.10488	6.2919998	3.595	-3.579

Bonds

1	1	1	2
2	2	1	3
3	3	1	45
4	4	3	4
5	5	3	26
6	6	4	5
7	7	4	24
8	7	4	25
9	6	5	6
10	7	5	22
11	7	5	23
12	6	6	7
13	7	6	20
14	7	6	21
15	6	7	8
16	7	7	18
17	7	7	19
18	6	8	9
19	7	8	16
20	7	8	17
21	4	9	10
22	7	9	14
23	7	9	15
24	2	10	11
25	5	10	13
26	1	11	12
27	8	11	27
28	9	27	28
29	7	28	29
30	6	28	30
31	6	28	42
32	7	30	31
33	7	30	32
34	6	30	33
35	7	33	34
36	7	33	35
37	6	33	36
38	9	36	37
39	7	36	38
40	6	36	39
41	10	37	70
42	7	39	40
43	7	39	41
44	6	39	42
45	7	42	43
46	7	42	44
47	1	45	46
48	2	45	47
49	4	47	48
50	5	47	69
51	6	48	49
52	7	48	67
53	7	48	68
54	6	49	50
55	7	49	65
56	7	49	66
57	6	50	51
58	7	50	63
59	7	50	64
60	6	51	52
61	7	51	61
62	7	51	62
63	6	52	53
64	7	52	59
65	7	52	60
66	11	53	54
67	7	53	57
68	7	53	58
69	12	54	55
70	1	55	56
71	9	70	71
72	7	71	72
73	6	71	73
74	6	71	86
75	7	73	74
76	7	73	75
77	6	73	76
78	7	76	77
79	7	76	78
80	6	76	79
81	13	79	80
82	7	79	82
83	6	79	83
84	14	80	81
85	7	83	84
86	7	83	85
87	6	83	86
88	7	86	87
89	7	86	88

Angles

1	2	11	10	13
2	4	5	4	24
3	4	4	5	6
4	4	39	42	43
5	4	31	30	33
6	4	77	76	79
7	4	83	86	88
8	7	74	73	75
9	4	50	51	52
10	4	51	52	59
11	4	73	71	86
12	4	37	36	38
13	4	50	49	66
14	4	71	86	87
15	4	71	73	75
16	2	45	47	69
17	7	24	4	25
18	4	3	4	25
19	4	28	42	43
20	4	71	86	83
21	4	49	50	51
22	4	10	9	14
23	1	1	3	4
24	4	82	79	83
25	4	72	71	86
26	4	7	8	9
27	4	79	83	85
28	3	1	45	46
29	4	37	36	39
30	7	67	48	68
31	4	28	42	39
32	4	71	73	76
33	7	84	83	85
34	4	6	5	23
35	2	9	10	13
36	4	5	6	21
37	4	6	7	19
38	7	43	42	44
39	3	46	45	47
40	4	4	5	23
41	4	73	76	77
42	4	76	79	80
43	4	52	51	61
44	4	28	42	44
45	4	48	49	50
46	4	79	83	86
47	3	1	45	47
48	4	51	50	63
49	4	53	52	59
50	7	61	51	62
51	4	75	73	76
52	2	48	47	69
53	4	8	9	10
54	4	30	33	36
55	4	33	36	39
56	4	73	76	78
57	4	28	30	31
58	3	2	1	45
59	4	52	51	62
60	4	48	49	65
61	7	18	7	19
62	4	41	39	42
63	4	70	71	72
64	4	5	4	25
65	2	4	3	26
66	4	39	42	44
67	4	51	50	64
68	4	47	48	67
69	4	36	39	40
70	7	57	53	58
71	7	59	52	60
72	4	49	50	63
73	4	74	73	76
74	9	54	55	56
75	4	51	52	60
76	5	11	27	28
77	4	71	86	88
78	4	48	49	66
79	4	47	48	49
80	4	50	51	61
81	4	72	71	73
82	4	8	9	14
83	4	51	52	53
84	6	12	11	27
85	4	47	48	68
86	4	38	36	39
87	4	7	8	16
88	4	10	9	15
89	3	10	11	27
90	3	3	1	45
91	4	35	33	36
92	4	80	79	82
93	4	52	53	57
94	4	27	28	29
95	4	84	83	86
96	4	29	28	30
97	1	45	47	48
98	7	22	5	23
99	4	49	48	67
100	7	31	30	32
101	7	77	76	78
102	4	53	52	60
103	4	6	7	8
104	4	52	53	58
105	4	27	28	30
106	3	2	1	3
107	4	29	28	42
108	7	40	39	41
109	4	8	7	18
110	4	73	76	79
111	4	76	79	82
112	4	28	30	32
113	5	36	37	70
114	7	14	9	15
115	4	49	48	68
116	4	52	53	54
117	4	71	73	74
118	4	70	71	73
119	5	79	80	81
120	1	9	10	11
121	7	63	50	64
122	4	27	28	42
123	4	36	39	41
124	4	49	50	64
125	4	3	4	24
126	4	7	6	20
127	4	9	8	16
128	4	40	39	42
129	7	20	6	21
130	4	8	7	19
131	4	54	53	57
132	4	79	83	84
133	4	76	79	83
134	4	28	30	33
135	7	87	86	88
136	4	5	6	7
137	4	50	51	62
138	4	8	9	15
139	4	6	5	22
140	4	5	6	20
141	2	1	3	26
142	4	6	7	18
143	3	10	11	12
144	4	30	33	34
145	4	33	36	37
146	7	34	33	35
147	4	36	39	42
148	4	4	5	22
149	4	30	28	42
150	4	7	8	17
151	8	53	54	55
152	4	7	6	21
153	4	9	8	17
154	4	85	83	86
155	4	54	53	58
156	4	3	4	5
157	4	80	79	83
158	4	70	71	86
159	4	32	30	33
160	7	65	49	66
161	4	78	76	79
162	4	83	86	87
163	4	34	33	36
164	4	30	33	35
165	4	33	36	38
166	5	37	70	71
167	7	16	8	17
168	4	50	49	65

Dihedrals

1	18	32	30	28	42
2	27	57	53	52	60
3	14	54	53	52	60
4	27	61	51	50	64
5	15	71	73	76	79
5	16	71	73	76	79
5	17	71	73	76	79
6	27	77	76	79	82
7	27	85	83	86	88
8	27	65	49	48	67
9	18	5	6	7	18
10	18	9	8	7	19
11	25	12	11	27	28
11	26	12	11	27	28
12	18	6	7	8	17
13	21	11	27	28	30
13	22	11	27	28	30
14	27	20	6	5	22
15	15	30	33	36	39
15	16	30	33	36	39
15	17	30	33	36	39
16	27	38	36	39	40
17	5	25	4	3	26
17	6	25	4	3	26
18	27	84	83	86	88
19	18	33	36	39	40
20	28	70	71	86	88
20	29	70	71	86	88
21	7	13	10	11	27
21	8	13	10	11	27
22	28	37	36	39	40
22	29	37	36	39	40
23	9	46	45	47	48
23	10	46	45	47	48
24	18	36	39	42	43
25	5	1	3	4	24
25	6	1	3	4	24
26	5	49	48	47	69
26	6	49	48	47	69
27	5	13	10	9	15
27	6	13	10	9	15
28	14	73	76	79	80
29	18	79	83	86	88
30	14	7	8	9	10
31	20	38	36	37	70
32	1	8	9	10	11
32	2	8	9	10	11
32	3	8	9	10	11
32	4	8	9	10	11
33	20	33	36	37	70
34	18	35	33	36	39
35	33	76	79	80	81
35	34	76	79	80	81
36	18	77	76	79	83
37	11	2	1	3	26
37	12	2	1	3	26
38	20	37	70	71	86
39	27	38	36	39	41
40	18	33	36	39	41
41	28	27	28	30	31
41	29	27	28	30	31
42	18	51	50	49	65
43	27	22	5	4	24
44	13	3	1	45	46
45	28	34	33	36	37
45	29	34	33	36	37
46	27	40	39	42	43
47	15	48	49	50	51
47	16	48	49	50	51
47	17	48	49	50	51
48	18	36	39	42	44
49	18	50	49	48	68
50	5	1	3	4	25
50	6	1	3	4	25
51	7	26	3	1	45
51	8	26	3	1	45
52	27	74	73	76	77
53	18	76	79	83	84
54	18	82	79	83	86
55	15	30	28	42	39
55	16	30	28	42	39
55	17	30	28	42	39
56	18	6	5	4	25
57	1	45	47	48	49
57	2	45	47	48	49
57	3	45	47	48	49
57	4	45	47	48	49
58	27	72	71	73	75
59	28	27	28	42	43
59	29	27	28	42	43
60	5	45	47	48	68
60	6	45	47	48	68
61	27	16	8	7	18
62	18	7	8	9	14
63	5	67	48	47	69
63	6	67	48	47	69
64	18	75	73	76	79
65	18	73	71	86	88
66	33	81	80	79	83
66	34	81	80	79	83
67	27	32	30	33	34
68	31	55	54	53	57
69	15	33	30	28	42
69	16	33	30	28	42
69	17	33	30	28	42
70	27	17	8	7	18
71	30	36	37	70	71
72	27	41	39	42	43
73	18	71	73	76	77
74	28	77	76	79	80
74	29	77	76	79	80
75	18	76	79	83	85
76	27	15	9	8	16
77	14	70	71	73	76
78	27	14	9	8	16
79	7	1	45	47	48
79	8	1	45	47	48
80	14	27	28	42	39
81	18	28	30	33	34
82	27	31	30	33	35
83	27	63	50	49	65
84	15	6	7	8	9
84	16	6	7	8	9
84	17	6	7	8	9
85	18	52	51	50	63
86	18	72	71	73	76
87	27	29	28	30	31
88	18	53	52	51	61
89	27	19	7	6	21
90	27	78	76	79	82
91	27	32	30	33	35
92	18	51	52	53	57
93	18	7	6	5	23
94	31	55	54	53	58
95	27	17	8	7	19
96	15	71	86	83	79
96	16	71	86	83	79
96	17	71	86	83	79
97	27	65	49	48	68
98	18	5	6	7	19
99	27	14	9	8	17
100	27	20	6	5	23
101	18	30	28	42	43
102	27	60	52	51	61
103	27	18	7	6	20
104	5	11	10	9	14
104	6	11	10	9	14
105	18	28	30	33	35
106	28	80	79	83	84
106	29	80	79	83	84
107	27	29	28	42	43
108	18	48	49	50	63
109	18	52	51	50	64
110	9	2	1	3	4
110	10	2	1	3	4
111	20	39	36	37	70
112	28	37	36	39	41
112	29	37	36	39	41
113	14	47	48	49	50
114	18	53	52	51	62
115	13	2	1	45	46
116	18	78	76	79	83
117	18	29	28	42	39
118	18	49	50	51	61
119	5	68	48	47	69
119	6	68	48	47	69
120	27	23	5	4	24
121	15	4	5	6	7
121	16	4	5	6	7
121	17	4	5	6	7
122	18	30	28	42	44
123	14	10	9	8	16
124	27	18	7	6	21
125	18	28	42	39	40
126	18	38	36	39	42
127	28	80	79	83	85
127	29	80	79	83	85
128	15	33	36	39	42
128	16	33	36	39	42
128	17	33	36	39	42
129	28	27	28	30	32
129	29	27	28	30	32
130	18	4	5	6	20
131	14	47	48	49	65
132	27	22	5	4	25
133	18	51	50	49	66
134	13	3	1	45	47
135	27	34	33	36	38
136	14	37	36	39	42
137	18	8	7	6	20
138	27	40	39	42	44
139	27	74	73	76	78
140	27	72	71	86	87
141	13	2	1	45	47
142	28	70	71	73	74
142	29	70	71	73	74
143	18	74	73	71	86
144	15	28	42	39	36
144	16	28	42	39	36
144	17	28	42	39	36
145	14	30	33	36	37
146	14	3	4	5	22
147	23	12	11	10	13
147	24	12	11	10	13
148	5	8	9	10	13
148	6	8	9	10	13
149	27	59	52	51	61
150	11	46	45	47	69
150	12	46	45	47	69
151	18	49	50	51	62
152	28	27	28	42	44
152	29	27	28	42	44
153	18	7	8	9	15
154	27	16	8	7	19
155	18	28	42	39	41
156	18	72	71	86	83
157	27	62	51	50	63
158	27	66	49	48	67
159	27	21	6	5	22
160	18	4	5	6	21
161	14	27	28	30	33
162	14	47	48	49	66
163	27	64	50	49	65
164	27	41	39	42	44
165	18	34	33	36	39
166	14	54	53	52	59
167	28	35	33	36	37
167	29	35	33	36	37
168	18	8	7	6	21
169	27	57	53	52	59
170	18	71	73	76	78
171	18	74	73	76	79
172	27	15	9	8	17
173	27	72	71	86	88
174	15	76	79	83	86
174	16	76	79	83	86
174	17	76	79	83	86
175	27	85	83	86	87
176	18	9	8	7	18
177	5	24	4	3	26
177	6	24	4	3	26
178	18	6	7	8	16
179	20	11	27	28	29
180	18	31	30	28	42
181	27	59	52	51	62
182	18	71	86	83	84
183	18	31	30	33	36
184	27	63	50	49	66
185	15	50	51	52	53
185	16	50	51	52	53
185	17	50	51	52	53
186	27	29	28	30	32
187	14	3	4	5	6
188	7	4	3	1	45
188	8	4	3	1	45
189	27	82	79	83	84
190	18	79	83	86	87
191	18	32	30	33	36
192	18	51	52	53	58
193	27	21	6	5	23
194	27	64	50	49	66
195	27	66	49	48	68
196	27	35	33	36	38
197	14	70	71	86	83
198	27	62	51	50	64
199	27	60	52	51	62
200	5	11	10	9	15
200	6	11	10	9	15
201	15	28	30	33	36
201	16	28	30	33	36
201	17	28	30	33	36
202	32	53	54	55	56
203	18	71	86	83	85
204	14	51	52	53	54
205	27	29	28	42	44
206	27	75	73	76	77
207	18	48	49	50	64
208	7	1	45	47	69
208	8	1	45	47	69
209	18	29	28	30	33
210	15	49	50	51	52
210	16	49	50	51	52
210	17	49	50	51	52
211	18	50	49	48	67
212	18	73	76	79	82
213	27	82	79	83	85
214	18	6	5	4	24
215	5	5	4	3	26
215	6	5	4	3	26
216	19	10	11	27	28
217	18	50	51	52	59
218	15	5	6	7	8
218	16	5	6	7	8
218	17	5	6	7	8
219	7	9	10	11	27
219	8	9	10	11	27
220	20	37	70	71	72
221	21	11	27	28	42
221	22	11	27	28	42
222	27	72	71	73	74
223	15	76	73	71	86
223	16	76	73	71	86
223	17	76	73	71	86
224	27	23	5	4	25
225	5	45	47	48	67
225	6	45	47	48	67
226	14	10	9	8	17
227	28	78	76	79	80
227	29	78	76	79	80
228	27	75	73	76	78
229	18	73	71	86	87
230	14	80	79	83	86
231	35	81	80	79	82
232	18	75	73	71	86
233	27	58	53	52	59
234	27	61	51	50	63
235	7	9	10	11	12
235	8	9	10	11	12
236	31	52	53	54	55
237	28	70	71	73	75
237	29	70	71	73	75
238	15	73	76	79	83
238	16	73	76	79	83
238	17	73	76	79	83
239	18	30	33	36	38
240	14	3	4	5	23
241	27	84	83	86	87
242	15	73	71	86	83
242	16	73	71	86	83
242	17	73	71	86	83
243	27	31	30	33	34
244	18	50	51	52	60
245	20	37	70	71	73
246	1	1	3	4	5
246	2	1	3	4	5
246	3	1	3	4	5
246	4	1	3	4	5
247	28	70	71	86	87
247	29	70	71	86	87
248	27	19	7	6	20
249	5	13	10	9	14
249	6	13	10	9	14
250	18	7	6	5	22
251	27	58	53	52	60

Impropers

2	2	1	2	3	45
30	2	45	47	1	46
36	1	47	48	69	45
54	1	47	45	48	69
119	3	11	10	12	27
123	1	47	69	45	48
202	1	10	9	11	13
211	3	11	12	27	10
249	1	3	26	1	4
261	2	1	45	2	3
315	2	1	3	45	2
355	2	45	46	47	1
362	3	11	27	10	12
480	1	10	13	9	11
519	2	45	1	46	47
520	1	10	11	13	9
542	1	3	1	4	26
552	1	3	4	26	1
