Title

88 atoms
89 bonds
168 angles
344 dihedrals
18 impropers

11 atom types
14 bond types
9 angle types
35 dihedral types
3 improper types
-12.50599957 87.49400043 xlo xhi
-2.693000078 97.30699992 ylo yhi
-7.673999786 92.32600021 zlo zhi
0.0 0.0 0.0 xy xz yz

Masses

1	12.01078
2	15.99943
3	14.00672
4	12.01078
5	1.007947
6	1.007947
7	1.007947
8	15.99943
9	12.01078
10	15.99943
11	1.007947


Pair Coeffs

1	0.086879315	3.4806469
2	0.2102061	3.0398122
3	0.16769152	3.206876
4	0.10884061	3.3795318
5	0.014090815	1.1034277
6	0.016409246	2.5832257
7	0.015779483	2.6445434
8	0.16846514	3.0251065
9	0.21	3.3996695
10	0.20947353	2.99716
11	1.2326e-05	0.53453923

Bond Coeffs

1 harmonic	582.698766451	1.225198386222
2 harmonic	492.76746816345	1.381897776683
3 harmonic	279.1350963404	1.454628925034
4 harmonic	352.0565580496	1.450098586273
5 harmonic	505.144496193	1.019481865027
6 harmonic	264.62148576755	1.52190126495
7 harmonic	370.04670688625	1.093899492634
8 harmonic	301.15400723785	1.345741232799
9 harmonic	366.7408841747	1.425895053732
10 harmonic	300.03137914615	1.451203938761
11 harmonic	366.34047229585	1.464762957261
12 harmonic	602.81384337	1.196112346392
13 harmonic	329.96998057905	1.427343958716
14 harmonic	543.5267831885	0.9716763312559


Angle Coeffs

1 harmonic	55.42182150775	117.3465570514
2 harmonic	63.44422595415	115.5071327674
3 harmonic	57.8982893754	126.8062420451
4 harmonic	53.20531626545	116.5475862634
5 harmonic	65.09061609600001	110.3538806181
6 harmonic	201.41175231035	127.4691416191
7 harmonic	48.776492647595	115.6030999533
8 harmonic	55.07882548015	112.8714009681
9 harmonic	33.56981613361	180


Dihedral Coeffs

1 fourier 1	-0.1488678166443	4	180
2 fourier 1	-0.1230328948768	3	180
3 fourier 1	0.2939295466901	2	0
4 fourier 1	-0.3024127022865	1	0
5 fourier 1	0.182238503271	2	0
6 fourier 1	0.02972342374561	3	0
7 fourier 1	1.809047390003	2	180
8 fourier 1	-0.04816277792592	1	0
9 fourier 1	3.101948770557	2	180
10 fourier 1	-0.4252153282372	1	0
11 fourier 1	2.348375642009	2	180
12 fourier 1	1.256156174911	1	0
13 fourier 1	0.9974165607242	2	180
14 fourier 1	0.1155372516788	3	0
15 fourier 1	0.09223874044423	3	0
16 fourier 1	0.3159935921949	2	180
17 fourier 1	0.3247796806857	1	180
18 fourier 1	0.1040663847541	3	0
19 fourier 1	2.779853741805	2	180
20 fourier 1	0.0473758381877	3	0
21 fourier 1	0.1918272375143	3	0
22 fourier 1	0.9202179876409	1	180
23 fourier 1	0.4860993122944	2	180
24 fourier 1	0.8916986138746	1	0
25 fourier 1	1.163809172478	2	180
26 fourier 1	0.1679186987369	1	180
27 fourier 1	0.1911926717192	3	0
28 fourier 1	0.1115525666802	3	0
29 fourier 1	0.3432490222662	1	0
30 fourier 1	0.457973137376	1	0
31 fourier 1	-1.382973039546	1	0
32 fourier 1	0	1	0
33 fourier 1	0.3445382149273	3	0
34 fourier 1	0.1364556373303	1	0
35 fourier 1	0.3026390167484	3	0


Improper Coeffs

1 0.3333333333333333	-1	2
2 0.3666666666666667	-1	2
3 3.5	-1	2


Atoms

1	1	1	0.54390198	-4.6939998	1.331	-0.38600001
2	1	2	-0.680439	-5.1230001	1.428	0.79500002
3	1	3	-0.52112401	-3.4430001	0.69599998	-0.66100001
4	1	4	0.031603999	-2.6159999	0.13600001	0.40700001
5	1	4	-0.145206	-1.3329999	-0.479	-0.161
6	1	4	-0.14182	-0.45199999	-1.053	0.95899999
7	1	4	-0.14182	0.75700003	-1.8430001	0.42699999
8	1	4	-0.14391799	1.749	-1.023	-0.41800001
9	1	4	0.029924	2.3959999	0.12800001	0.36399999
10	1	3	-0.47825	3.4519999	0.76200002	-0.42399999
11	1	1	0.81340599	4.2150002	1.858	0.088
12	1	2	-0.60091501	3.9979999	2.3099999	1.244
13	1	5	0.32832599	3.668	0.42500001	-1.39
14	1	6	0.058786001	1.6289999	0.89200002	0.61000001
15	1	6	0.058786001	2.832	-0.264	1.309
16	1	7	0.089571998	1.249	-0.62900001	-1.3279999
17	1	7	0.089571998	2.55	-1.7130001	-0.75999999
18	1	7	0.088326998	1.301	-2.2809999	1.293
19	1	7	0.088326998	0.38800001	-2.6930001	-0.186
20	1	7	0.088326998	-0.114	-0.237	1.633
21	1	7	0.088326998	-1.063	-1.749	1.574
22	1	7	0.089571998	-0.77499998	0.31	-0.708
23	1	7	0.089571998	-1.602	-1.289	-0.875
24	1	6	0.055197999	-3.1960001	-0.64499998	0.94499999
25	1	6	0.055197999	-2.352	0.94400001	1.125
26	1	5	0.32036701	-3.1300001	0.63999999	-1.6569999
27	1	8	-0.52133799	4.9559999	2.2869999	-0.49700001
28	1	4	0.192546	4.5219998	2.207	-1.831
29	1	6	0.090138003	4.1069999	1.188	-2.016
30	1	4	-0.159491	5.7280002	2.411	-2.7820001
31	1	7	0.10558	6.6789999	2.319	-2.2130001
32	1	7	0.10558	5.7379999	1.596	-3.54
33	1	4	-0.148719	5.7189999	3.757	-3.5309999
34	1	7	0.104604	5.0279999	3.681	-4.4000001
35	1	7	0.104604	6.7329998	3.961	-3.938
36	1	4	0.074780002	5.2690001	4.9320002	-2.641
37	1	8	-0.129155	6.2740002	5.27	-1.717
38	1	6	0.094251998	5.1389999	5.8109999	-3.309
39	1	4	-0.148719	3.9130001	4.6750002	-1.929
40	1	7	0.104604	3.9979999	4.914	-0.84600002
41	1	7	0.104604	3.142	5.3610001	-2.3429999
42	1	4	-0.159491	3.4030001	3.2320001	-2.0810001
43	1	7	0.10558	2.9949999	3.089	-3.1059999
44	1	7	0.10558	2.5669999	3.0599999	-1.369
45	1	1	0.54390198	-5.2810001	1.734	-1.2
46	1	2	-0.680439	-5.3039999	1.13	-2.3050001
47	1	3	-0.52112401	-6.013	2.95	-1.011
48	1	4	0.031603999	-6.8260002	3.556	-2.0639999
49	1	4	-0.145206	-8.1389999	2.786	-2.2379999
50	1	4	-0.141637	-9.0120001	3.427	-3.3280001
51	1	4	-0.137436	-10.394	2.7650001	-3.4449999
52	1	4	-0.121623	-10.327	1.36	-4.0650001
53	1	4	0.18496101	-11.726	0.75800002	-4.27
54	1	3	-0.63582802	-12.506	1.5190001	-5.2420001
55	1	9	0.59375501	-12.193	1.558	-6.4749999
56	1	2	-0.46010599	-11.887	1.597	-7.6739998
57	1	6	0.033438001	-11.632	-0.29699999	-4.6100001
58	1	6	0.033438001	-12.269	0.75099999	-3.3010001
59	1	7	0.083199002	-9.7629995	0.68199998	-3.3900001
60	1	7	0.083199002	-9.7910004	1.397	-5.0380001
61	1	7	0.087043002	-10.874	2.7149999	-2.4430001
62	1	7	0.087043002	-11.027	3.415	-4.0879998
63	1	7	0.088326998	-9.1660004	4.4990001	-3.079
64	1	7	0.088326998	-8.4879999	3.381	-4.3080001
65	1	7	0.089571998	-7.9089999	1.7359999	-2.513
66	1	7	0.089571998	-8.6890001	2.7869999	-1.271
67	1	6	0.055197999	-6.2540002	3.572	-3.0179999
68	1	6	0.055197999	-7.053	4.6069999	-1.783
69	1	5	0.32036701	-5.9109998	3.4530001	-0.101
70	1	8	-0.129155	6.375	4.5100002	-1.085
71	1	4	0.075319	5.526	3.4860001	-1.538
72	1	6	0.094251998	4.54	3.927	-1.814
73	1	4	-0.14023501	5.289	2.4660001	-0.396
74	1	7	0.10488	5.6230001	2.898	0.57300001
75	1	7	0.10488	4.198	2.2780001	-0.294
76	1	4	-0.19597299	5.987	1.109	-0.60799998
77	1	7	0.107201	5.375	0.49399999	-1.304
78	1	7	0.107201	6.0320001	0.56	0.35800001
79	1	4	0.128088	7.4060001	1.253	-1.191
80	1	10	-0.70212698	8.2980003	1.7410001	-0.219
81	1	11	0.39826599	8.0299997	2.6700001	0.001
82	1	6	0.075558998	7.7509999	0.23	-1.4579999
83	1	4	-0.19597299	7.4520001	2.1170001	-2.4809999
84	1	7	0.107201	8.2580004	2.8800001	-2.401
85	1	7	0.107201	7.7129998	1.473	-3.349
86	1	4	-0.14023501	6.1240001	2.826	-2.793
87	1	7	0.10488	5.3979998	2.0910001	-3.2030001
88	1	7	0.10488	6.2919998	3.595	-3.579

Bonds

1	1	1	2
2	2	1	3
3	3	1	45
4	4	3	4
5	5	3	26
6	6	4	5
7	7	4	24
8	7	4	25
9	6	5	6
10	7	5	22
11	7	5	23
12	6	6	7
13	7	6	20
14	7	6	21
15	6	7	8
16	7	7	18
17	7	7	19
18	6	8	9
19	7	8	16
20	7	8	17
21	4	9	10
22	7	9	14
23	7	9	15
24	2	10	11
25	5	10	13
26	1	11	12
27	8	11	27
28	9	27	28
29	7	28	29
30	6	28	30
31	6	28	42
32	7	30	31
33	7	30	32
34	6	30	33
35	7	33	34
36	7	33	35
37	6	33	36
38	9	36	37
39	7	36	38
40	6	36	39
41	10	37	70
42	7	39	40
43	7	39	41
44	6	39	42
45	7	42	43
46	7	42	44
47	1	45	46
48	2	45	47
49	4	47	48
50	5	47	69
51	6	48	49
52	7	48	67
53	7	48	68
54	6	49	50
55	7	49	65
56	7	49	66
57	6	50	51
58	7	50	63
59	7	50	64
60	6	51	52
61	7	51	61
62	7	51	62
63	6	52	53
64	7	52	59
65	7	52	60
66	11	53	54
67	7	53	57
68	7	53	58
69	12	54	55
70	1	55	56
71	9	70	71
72	7	71	72
73	6	71	73
74	6	71	86
75	7	73	74
76	7	73	75
77	6	73	76
78	7	76	77
79	7	76	78
80	6	76	79
81	13	79	80
82	7	79	82
83	6	79	83
84	14	80	81
85	7	83	84
86	7	83	85
87	6	83	86
88	7	86	87
89	7	86	88

Angles

1	7	63	50	64
2	5	37	70	71
3	4	27	28	29
4	1	1	3	4
5	4	48	49	65
6	4	7	8	17
7	4	49	50	64
8	4	47	48	49
9	3	10	11	12
10	7	18	7	19
11	7	22	5	23
12	4	79	83	84
13	7	40	39	41
14	4	37	36	38
15	4	8	9	10
16	4	29	28	42
17	4	83	86	87
18	5	79	80	81
19	4	71	86	83
20	4	29	28	30
21	4	48	49	66
22	4	9	8	17
23	7	74	73	75
24	4	70	71	73
25	4	83	86	88
26	7	65	49	66
27	2	11	10	13
28	4	54	53	57
29	7	43	42	44
30	4	71	86	87
31	4	40	39	42
32	4	50	51	61
33	4	7	8	16
34	4	8	7	19
35	4	32	30	33
36	4	49	50	51
37	3	1	45	46
38	1	45	47	48
39	4	10	9	15
40	4	39	42	44
41	4	71	73	76
42	4	4	5	23
43	2	48	47	69
44	7	84	83	85
45	4	53	52	60
46	4	7	8	9
47	6	12	11	27
48	4	51	50	63
49	3	2	1	45
50	4	71	73	75
51	4	36	39	42
52	4	37	36	39
53	4	28	42	43
54	4	47	48	67
55	4	77	76	79
56	4	70	71	86
57	4	73	76	79
58	4	51	52	53
59	4	6	5	23
60	5	36	37	70
61	4	28	30	33
62	2	4	3	26
63	4	84	83	86
64	4	39	42	43
65	4	53	52	59
66	4	5	6	7
67	4	52	53	57
68	4	5	4	24
69	4	49	50	63
70	4	82	79	83
71	4	6	7	19
72	4	7	6	21
73	4	50	51	62
74	4	52	51	61
75	4	8	7	18
76	4	72	71	86
77	4	5	6	21
78	4	6	5	22
79	4	76	79	80
80	2	9	10	13
81	9	54	55	56
82	4	4	5	6
83	4	52	53	54
84	4	71	86	88
85	4	80	79	83
86	7	87	86	88
87	4	49	48	67
88	3	10	11	27
89	4	73	71	86
90	4	33	36	38
91	4	3	4	24
92	3	2	1	3
93	4	8	9	14
94	2	45	47	69
95	4	72	71	73
96	4	51	52	60
97	4	6	7	8
98	7	20	6	21
99	4	48	49	50
100	7	16	8	17
101	4	80	79	82
102	7	77	76	78
103	3	1	45	47
104	1	9	10	11
105	4	73	76	78
106	4	38	36	39
107	4	50	49	65
108	5	11	27	28
109	4	75	73	76
110	3	3	1	45
111	7	14	9	15
112	4	79	83	85
113	4	51	52	59
114	4	76	79	83
115	4	47	48	68
116	4	73	76	77
117	4	30	28	42
118	4	4	5	22
119	4	6	7	18
120	4	30	33	34
121	7	24	4	25
122	4	52	51	62
123	7	31	30	32
124	4	30	33	35
125	4	8	9	15
126	7	61	51	62
127	4	76	79	82
128	4	36	39	40
129	4	33	36	39
130	7	34	33	35
131	4	28	42	39
132	4	30	33	36
133	4	28	30	32
134	4	54	53	58
135	4	78	76	79
136	2	1	3	26
137	4	27	28	42
138	4	34	33	36
139	4	50	51	52
140	4	27	28	30
141	7	57	53	58
142	4	10	9	14
143	4	74	73	76
144	4	49	48	68
145	4	33	36	37
146	3	46	45	47
147	8	53	54	55
148	4	3	4	25
149	4	28	30	31
150	4	70	71	72
151	7	67	48	68
152	4	3	4	5
153	7	59	52	60
154	4	28	42	44
155	4	51	50	64
156	4	85	83	86
157	4	50	49	66
158	4	36	39	41
159	4	35	33	36
160	4	7	6	20
161	4	79	83	86
162	4	5	6	20
163	4	41	39	42
164	4	52	53	58
165	4	31	30	33
166	4	5	4	25
167	4	9	8	16
168	4	71	73	74

Dihedrals

1	23	12	11	10	13
1	24	12	11	10	13
2	18	49	50	51	61
3	27	15	9	8	16
4	18	50	49	48	67
5	15	76	73	71	86
5	16	76	73	71	86
5	17	76	73	71	86
6	28	27	28	30	31
6	29	27	28	30	31
7	27	29	28	30	32
8	18	71	86	83	85
9	18	30	28	42	44
10	27	82	79	83	84
11	21	11	27	28	30
11	22	11	27	28	30
12	18	71	73	76	78
13	5	1	3	4	24
13	6	1	3	4	24
14	15	33	30	28	42
14	16	33	30	28	42
14	17	33	30	28	42
15	18	52	51	50	63
16	27	17	8	7	18
17	28	80	79	83	84
17	29	80	79	83	84
18	27	74	73	76	78
19	28	27	28	42	44
19	29	27	28	42	44
20	27	34	33	36	38
21	14	73	76	79	80
22	27	57	53	52	60
23	18	6	5	4	24
24	18	4	5	6	21
25	18	73	71	86	87
26	27	29	28	30	31
27	27	15	9	8	17
28	15	30	33	36	39
28	16	30	33	36	39
28	17	30	33	36	39
29	27	18	7	6	21
30	5	13	10	9	14
30	6	13	10	9	14
31	25	12	11	27	28
31	26	12	11	27	28
32	18	7	8	9	15
33	18	8	7	6	20
34	1	8	9	10	11
34	2	8	9	10	11
34	3	8	9	10	11
34	4	8	9	10	11
35	28	77	76	79	80
35	29	77	76	79	80
36	28	37	36	39	40
36	29	37	36	39	40
37	5	49	48	47	69
37	6	49	48	47	69
38	13	3	1	45	46
39	31	55	54	53	57
40	27	74	73	76	77
41	18	30	28	42	43
42	28	78	76	79	80
42	29	78	76	79	80
43	27	63	50	49	65
44	15	71	86	83	79
44	16	71	86	83	79
44	17	71	86	83	79
45	18	50	51	52	59
46	27	38	36	39	41
47	27	64	50	49	66
48	27	84	83	86	87
49	18	51	50	49	65
50	7	1	45	47	48
50	8	1	45	47	48
51	9	2	1	3	4
51	10	2	1	3	4
52	5	45	47	48	67
52	6	45	47	48	67
53	14	3	4	5	6
54	27	57	53	52	59
55	15	28	42	39	36
55	16	28	42	39	36
55	17	28	42	39	36
56	20	39	36	37	70
57	27	61	51	50	63
58	19	10	11	27	28
59	18	32	30	28	42
60	18	49	50	51	62
61	14	54	53	52	60
62	27	32	30	33	34
63	33	81	80	79	83
63	34	81	80	79	83
64	28	70	71	73	74
64	29	70	71	73	74
65	27	32	30	33	35
66	18	51	50	49	66
67	5	68	48	47	69
67	6	68	48	47	69
68	18	38	36	39	42
69	15	73	76	79	83
69	16	73	76	79	83
69	17	73	76	79	83
70	27	29	28	42	43
71	15	76	79	83	86
71	16	76	79	83	86
71	17	76	79	83	86
72	18	9	8	7	19
73	27	66	49	48	68
74	21	11	27	28	42
74	22	11	27	28	42
75	5	13	10	9	15
75	6	13	10	9	15
76	14	7	8	9	10
77	18	34	33	36	39
78	18	74	73	71	86
79	15	33	36	39	42
79	16	33	36	39	42
79	17	33	36	39	42
80	18	72	71	86	83
81	27	19	7	6	20
82	15	73	71	86	83
82	16	73	71	86	83
82	17	73	71	86	83
83	5	11	10	9	14
83	6	11	10	9	14
84	35	81	80	79	82
85	18	51	52	53	58
86	20	37	70	71	72
87	31	52	53	54	55
88	13	2	1	45	47
89	5	24	4	3	26
89	6	24	4	3	26
90	18	73	76	79	82
91	18	78	76	79	83
92	28	80	79	83	85
92	29	80	79	83	85
93	18	32	30	33	36
94	27	72	71	86	87
95	14	3	4	5	22
96	27	20	6	5	23
97	27	59	52	51	61
98	27	77	76	79	82
99	18	76	79	83	84
100	28	37	36	39	41
100	29	37	36	39	41
101	18	4	5	6	20
102	5	1	3	4	25
102	6	1	3	4	25
103	18	28	30	33	34
104	27	40	39	42	44
105	27	21	6	5	23
106	27	78	76	79	82
107	27	18	7	6	20
108	30	36	37	70	71
109	18	73	71	86	88
110	7	9	10	11	12
110	8	9	10	11	12
111	18	28	30	33	35
112	27	72	71	73	74
113	27	85	83	86	87
114	28	70	71	86	87
114	29	70	71	86	87
115	1	1	3	4	5
115	2	1	3	4	5
115	3	1	3	4	5
115	4	1	3	4	5
116	28	34	33	36	37
116	29	34	33	36	37
117	18	6	5	4	25
118	13	2	1	45	46
119	27	23	5	4	24
120	18	31	30	28	42
121	27	65	49	48	68
122	18	79	83	86	87
123	27	31	30	33	34
124	7	1	45	47	69
124	8	1	45	47	69
125	27	35	33	36	38
126	28	27	28	42	43
126	29	27	28	42	43
127	14	47	48	49	65
128	27	31	30	33	35
129	14	37	36	39	42
130	27	20	6	5	22
131	31	55	54	53	58
132	27	84	83	86	88
133	5	11	10	9	15
133	6	11	10	9	15
134	18	28	42	39	40
135	14	70	71	73	76
136	18	75	73	76	79
137	18	71	86	83	84
138	18	9	8	7	18
139	27	21	6	5	22
140	27	40	39	42	43
141	27	63	50	49	66
142	18	6	7	8	17
143	18	7	6	5	23
144	14	27	28	30	33
145	27	16	8	7	19
146	18	53	52	51	61
147	20	11	27	28	29
148	14	47	48	49	66
149	27	58	53	52	60
150	18	77	76	79	83
151	7	9	10	11	27
151	8	9	10	11	27
152	27	82	79	83	85
153	32	53	54	55	56
154	7	4	3	1	45
154	8	4	3	1	45
155	18	8	7	6	21
156	27	22	5	4	24
157	18	50	49	48	68
158	14	54	53	52	59
159	27	59	52	51	62
160	15	30	28	42	39
160	16	30	28	42	39
160	17	30	28	42	39
161	18	29	28	30	33
162	14	70	71	86	83
163	20	33	36	37	70
164	14	10	9	8	16
165	33	76	79	80	81
165	34	76	79	80	81
166	18	72	71	73	76
167	9	46	45	47	48
167	10	46	45	47	48
168	27	72	71	86	88
169	5	5	4	3	26
169	6	5	4	3	26
170	18	75	73	71	86
171	18	35	33	36	39
172	5	25	4	3	26
172	6	25	4	3	26
173	27	41	39	42	44
174	27	58	53	52	59
175	18	6	7	8	16
176	27	14	9	8	17
177	27	60	52	51	61
178	18	82	79	83	86
179	27	66	49	48	67
180	14	80	79	83	86
181	18	7	8	9	14
182	18	33	36	39	40
183	18	48	49	50	64
184	27	85	83	86	88
185	28	70	71	86	88
185	29	70	71	86	88
186	18	28	42	39	41
187	27	75	73	76	78
188	18	51	52	53	57
189	18	29	28	42	39
190	18	5	6	7	19
191	18	79	83	86	88
192	14	10	9	8	17
193	15	6	7	8	9
193	16	6	7	8	9
193	17	6	7	8	9
194	27	19	7	6	21
195	15	28	30	33	36
195	16	28	30	33	36
195	17	28	30	33	36
196	7	26	3	1	45
196	8	26	3	1	45
197	27	16	8	7	18
198	18	53	52	51	62
199	27	23	5	4	25
200	5	45	47	48	68
200	6	45	47	48	68
201	20	37	70	71	86
202	15	4	5	6	7
202	16	4	5	6	7
202	17	4	5	6	7
203	5	8	9	10	13
203	6	8	9	10	13
204	27	41	39	42	43
205	28	70	71	73	75
205	29	70	71	73	75
206	27	75	73	76	77
207	7	13	10	11	27
207	8	13	10	11	27
208	28	35	33	36	37
208	29	35	33	36	37
209	14	51	52	53	54
210	18	50	51	52	60
211	15	71	73	76	79
211	16	71	73	76	79
211	17	71	73	76	79
212	18	36	39	42	44
213	18	48	49	50	63
214	27	14	9	8	16
215	18	31	30	33	36
216	27	17	8	7	19
217	27	61	51	50	64
218	27	62	51	50	64
219	27	64	50	49	65
220	18	74	73	76	79
221	18	71	73	76	77
222	27	65	49	48	67
223	15	5	6	7	8
223	16	5	6	7	8
223	17	5	6	7	8
224	20	38	36	37	70
225	20	37	70	71	73
226	15	49	50	51	52
226	16	49	50	51	52
226	17	49	50	51	52
227	15	50	51	52	53
227	16	50	51	52	53
227	17	50	51	52	53
228	27	29	28	42	44
229	27	60	52	51	62
230	15	48	49	50	51
230	16	48	49	50	51
230	17	48	49	50	51
231	18	7	6	5	22
232	18	30	33	36	38
233	11	2	1	3	26
233	12	2	1	3	26
234	11	46	45	47	69
234	12	46	45	47	69
235	18	76	79	83	85
236	14	27	28	42	39
237	27	22	5	4	25
238	28	27	28	30	32
238	29	27	28	30	32
239	18	36	39	42	43
240	27	38	36	39	40
241	27	62	51	50	63
242	18	33	36	39	41
243	1	45	47	48	49
243	2	45	47	48	49
243	3	45	47	48	49
243	4	45	47	48	49
244	27	72	71	73	75
245	18	52	51	50	64
246	13	3	1	45	47
247	14	47	48	49	50
248	18	5	6	7	18
249	14	3	4	5	23
250	5	67	48	47	69
250	6	67	48	47	69
251	14	30	33	36	37

Impropers

25	2	45	47	1	46
48	1	3	26	1	4
64	3	11	27	10	12
68	1	47	69	45	48
109	1	10	11	13	9
125	1	3	4	26	1
130	2	1	3	45	2
242	1	47	48	69	45
273	3	11	12	27	10
313	1	47	45	48	69
329	3	11	10	12	27
338	1	10	9	11	13
396	2	45	46	47	1
405	2	1	2	3	45
474	1	3	1	4	26
524	2	1	45	2	3
527	2	45	1	46	47
530	1	10	13	9	11
