Title

82 atoms
87 bonds
142 angles
213 dihedrals
114 impropers

9 atom types
13 bond types
6 angle types
8 dihedral types
2 improper types
-11.07499981 88.92500019 xlo xhi
-9.767999649 90.23200035 ylo yhi
-8.82199955 91.17800045 zlo zhi
0.0 0.0 0.0 xy xz yz

Masses

1	15.99943
2	12.01078
3	1.007947
4	12.01078
5	1.007947
6	15.99943
7	15.99943
8	1.007947
9	35.4532


Pair Coeffs

1	0.16846514	3.0251065
2	0.086879315	3.4806469
3	0.015611343	2.5725815
4	0.10884061	3.3795318
5	0.015779483	2.6445434
6	0.2102061	3.0398122
7	0.20947353	2.99716
8	1.2326e-05	0.53453923
9	0.2656001	3.3075278

Bond Coeffs

1 harmonic	425.69104206635	1.362945806494
2 harmonic	300.03137914615	1.451203938761
3 harmonic	360.7852444772	1.387193227181
4 harmonic	397.2545789619	1.085358495916
5 harmonic	289.73813263395	1.498646816465
6 harmonic	264.62148576755	1.52190126495
7 harmonic	301.15400723785	1.345741232799
8 harmonic	370.04670688625	1.093899492634
9 harmonic	582.698766451	1.225198386222
10 harmonic	279.1350963404	1.454628925034
11 harmonic	385.7604595587	1.369745182308
12 harmonic	543.5267831885	0.9716763312559
13 harmonic	218.0227703685	1.746066037062


Angle Coeffs

1 harmonic	57.8982893754	126.8062420451
2 harmonic	65.09061609600001	110.3538806181
3 harmonic	34.066775159195	129.1835929926
4 harmonic	53.20531626545	116.5475862634
5 harmonic	201.41175231035	127.4691416191
6 harmonic	48.776492647595	115.6030999533


Dihedral Coeffs

1 fourier 1	3.661930099076	2	180
2 fourier 1	1.532232714475	2	180
3 fourier 1	0.457973137376	1	0
4 fourier 1	0.02664938770063	3	0
5 fourier 1	0.1155372516788	3	0
6 fourier 1	2.779853741805	2	180
7 fourier 1	0.9974165607242	2	180
8 fourier 1	0.8283030590042	2	180


Improper Coeffs

1 0.3666666666666667	-1	2
2 3.5	-1	2


Atoms

1	1	1	-0.015698999	-0.037	-2.4200001	-4.9910002
2	1	2	0.28362501	0.13	-1.78	-3.7639999
3	1	2	-0.32219699	-0.57499999	-0.68400002	-3.4579999
4	1	3	0.23050199	-1.2920001	-0.27900001	-4.1599998
5	1	2	-0.12575801	-0.38600001	-0.016000001	-2.1530001
6	1	3	0.21243501	-1.012	0.83899999	-1.943
7	1	2	-0.22147	0.52600002	-0.47299999	-1.262
8	1	4	0.115173	0.71899998	0.168	0.133
9	1	2	-0.187627	0.16	1.61	0.164
10	1	2	-0.20423301	-1.021	1.921	0.75099999
11	1	3	0.214834	-1.624	1.178	1.253
12	1	2	-0.21896	-1.546	3.302	0.71799999
13	1	3	0.22388101	-2.4779999	3.5339999	1.216
14	1	2	-0.21216799	-0.87599999	4.2610002	0.072999999
15	1	3	0.22432999	-1.263	5.2709999	0.046
16	1	2	-0.21896	0.384	3.938	-0.61900002
17	1	3	0.22388101	0.90799999	4.711	-1.166
18	1	2	-0.20423301	0.87	2.6919999	-0.58499998
19	1	3	0.214834	1.78	2.4779999	-1.128
20	1	2	-0.22147	0.071999997	-0.70200002	1.237
21	1	2	-0.12825499	-0.89099997	-1.618	0.97299999
22	1	3	0.21243501	-1.239	-1.806	-0.033
23	1	2	-0.27700099	-1.5190001	-2.3959999	2.059
24	1	3	0.230198	-2.266	-3.142	1.817
25	1	2	0.443611	-1.174	-2.1800001	3.332
26	1	1	-0.438712	-1.773	-2.9200001	4.348
27	1	2	-0.27700099	-0.164	-1.151	3.651
28	1	3	0.230198	0.097000003	-0.95300001	4.6820002
29	1	2	-0.12825499	0.41600001	-0.44999999	2.6700001
30	1	3	0.21243501	1.128	0.31900001	2.937
31	1	4	-0.14876699	2.2479999	0.242	0.41800001
32	1	5	0.087503999	2.4809999	0.99400002	1.2029999
33	1	5	0.087503999	2.6459999	-0.73500001	0.76700002
34	1	5	0.087503999	2.819	0.52600002	-0.49200001
35	1	2	-0.12575801	1.275	-1.719	-1.61
36	1	3	0.21243501	1.964	-2.161	-0.90399998
37	1	2	-0.32219699	1.092	-2.325	-2.789
38	1	3	0.23050199	1.642	-3.227	-3.0239999
39	1	2	0.629646	-1.52	-2.766	5.3540001
40	1	6	-0.48727	-0.373	-2.9449999	5.7280002
41	1	1	-0.015698999	-0.69	-2.0769999	-5.6869998
42	1	2	0.28362501	-1.904	-2.717	-5.9320002
43	1	2	-0.32219699	-2.2550001	-3.813	-5.2480001
44	1	3	0.23050199	-1.599	-4.2179999	-4.487
45	1	2	-0.12575801	-3.5450001	-4.4809999	-5.5180001
46	1	3	0.21243501	-3.7939999	-5.336	-4.9070001
47	1	2	-0.22147	-4.3769999	-4.0240002	-6.4850001
48	1	4	0.115173	-5.757	-4.665	-6.7649999
49	1	2	-0.187627	-5.822	-6.1069999	-6.2090001
50	1	2	-0.20423301	-6.4840002	-6.4180002	-5.0679998
51	1	3	0.214834	-7.0229998	-5.6750002	-4.4980001
52	1	2	-0.21896	-6.4840002	-7.7989998	-4.5419998
53	1	3	0.22388101	-7.039	-8.0310001	-3.6429999
54	1	2	-0.21216799	-5.7969999	-8.7580004	-5.1700001
55	1	3	0.22432999	-5.7950001	-9.7679996	-4.7820001
56	1	2	-0.21896	-5.0279999	-8.4350004	-6.3829999
57	1	3	0.22388101	-4.448	-9.2080002	-6.8720002
58	1	2	-0.20423301	-5.0300002	-7.1890001	-6.8709998
59	1	3	0.214834	-4.4310002	-6.9749999	-7.7449999
60	1	2	-0.22147	-6.9000001	-3.796	-6.1890001
61	1	2	-0.074047998	-6.6960001	-2.8789999	-5.2119999
62	1	3	0.21243501	-5.7150002	-2.691	-4.8010001
63	1	2	-0.41608399	-7.8210001	-2.1010001	-4.6529999
64	1	3	0.23597901	-7.6259999	-1.355	-3.8929999
65	1	2	0.43849099	-9.0690002	-2.3169999	-5.0780001
66	1	7	-0.64679098	-10.121	-1.577	-4.5450001
67	1	8	0.43858001	-11.075	-1.726	-4.8499999
68	1	2	-0.41608399	-9.323	-3.346	-6.1059999
69	1	3	0.23597901	-10.336	-3.5439999	-6.4330001
70	1	2	-0.074047998	-8.3070002	-4.0469999	-6.6240001
71	1	3	0.21243501	-8.5290003	-4.816	-7.3509998
72	1	4	-0.14876699	-5.9439998	-4.7389998	-8.3100004
73	1	5	0.087503999	-6.7129998	-5.4910002	-8.5909996
74	1	5	0.087503999	-6.2670002	-3.7620001	-8.7290001
75	1	5	0.087503999	-5	-5.0229998	-8.8219995
76	1	2	-0.12575801	-3.9820001	-2.7780001	-7.21
77	1	3	0.21243501	-4.6430001	-2.336	-7.9419999
78	1	2	-0.32219699	-2.8169999	-2.1719999	-6.9530001
79	1	3	0.23050199	-2.5480001	-1.27	-7.487
80	1	2	0.46869299	-2.2780001	-2.447	6.0609999
81	1	6	-0.55945802	-3.402	-2.1830001	5.6719999
82	1	9	-0.077004001	-1.885	-2.312	7.7649999

Bonds

1	1	1	2
2	2	1	41
3	3	2	3
4	3	2	37
5	4	3	4
6	3	3	5
7	4	5	6
8	3	5	7
9	5	7	8
10	3	7	35
11	5	8	9
12	5	8	20
13	6	8	31
14	3	9	10
15	3	9	18
16	4	10	11
17	3	10	12
18	4	12	13
19	3	12	14
20	4	14	15
21	3	14	16
22	4	16	17
23	3	16	18
24	4	18	19
25	3	20	21
26	3	20	29
27	4	21	22
28	3	21	23
29	4	23	24
30	3	23	25
31	1	25	26
32	3	25	27
33	7	26	39
34	4	27	28
35	3	27	29
36	4	29	30
37	8	31	32
38	8	31	33
39	8	31	34
40	4	35	36
41	3	35	37
42	4	37	38
43	9	39	40
44	10	39	80
45	1	41	42
46	3	42	43
47	3	42	78
48	4	43	44
49	3	43	45
50	4	45	46
51	3	45	47
52	5	47	48
53	3	47	76
54	5	48	49
55	5	48	60
56	6	48	72
57	3	49	50
58	3	49	58
59	4	50	51
60	3	50	52
61	4	52	53
62	3	52	54
63	4	54	55
64	3	54	56
65	4	56	57
66	3	56	58
67	4	58	59
68	3	60	61
69	3	60	70
70	4	61	62
71	3	61	63
72	4	63	64
73	3	63	65
74	11	65	66
75	3	65	68
76	12	66	67
77	4	68	69
78	3	68	70
79	4	70	71
80	8	72	73
81	8	72	74
82	8	72	75
83	4	76	77
84	3	76	78
85	4	78	79
86	9	80	81
87	13	80	82

Angles

1	3	2	3	4
2	4	8	31	33
3	3	16	18	19
4	4	8	31	34
5	3	43	45	46
6	3	49	50	51
7	3	3	5	6
8	3	12	14	15
9	1	20	29	27
10	1	47	76	78
11	1	50	52	54
12	1	9	18	16
13	3	57	56	58
14	1	9	10	12
15	1	14	16	18
16	1	5	7	35
17	1	41	42	43
18	1	63	65	68
19	3	42	43	44
20	3	24	23	25
21	4	7	8	9
22	3	49	58	59
23	4	48	72	73
24	1	12	14	16
25	4	47	48	49
26	4	60	48	72
27	3	22	21	23
28	1	2	37	35
29	3	25	27	28
30	3	2	37	38
31	6	32	31	33
32	6	32	31	34
33	1	48	49	50
34	1	20	21	23
35	1	43	45	47
36	1	26	39	80
37	1	10	9	18
38	3	9	18	19
39	4	49	48	60
40	4	20	8	31
41	1	3	2	37
42	3	65	68	69
43	3	27	29	30
44	1	48	60	61
45	3	56	58	59
46	3	64	63	65
47	1	42	43	45
48	1	42	78	76
49	1	81	80	82
50	3	20	21	22
51	1	63	65	66
52	1	8	7	35
53	3	21	23	24
54	3	11	10	12
55	3	54	56	57
56	1	61	60	70
57	3	60	70	71
58	3	28	27	29
59	3	76	78	79
60	4	47	48	60
61	1	8	20	21
62	1	48	47	76
63	1	61	63	65
64	1	1	2	37
65	3	42	78	79
66	1	48	60	70
67	4	47	48	72
68	1	25	27	29
69	1	54	56	58
70	3	36	35	37
71	3	69	68	70
72	3	10	12	13
73	1	45	47	76
74	4	9	8	20
75	6	73	72	75
76	3	77	76	78
77	3	6	5	7
78	1	3	5	7
79	4	7	8	20
80	4	8	31	32
81	1	40	39	80
82	4	48	72	75
83	3	44	43	45
84	1	23	25	27
85	2	2	1	41
86	2	1	41	42
87	3	9	10	11
88	4	49	48	72
89	3	47	76	77
90	1	49	58	56
91	1	41	42	78
92	6	33	31	34
93	3	17	16	18
94	1	26	25	27
95	3	46	45	47
96	3	14	16	17
97	1	65	68	70
98	2	65	66	67
99	1	49	50	52
100	3	61	63	64
101	3	13	12	14
102	1	8	20	29
103	4	9	8	31
104	3	7	35	36
105	1	23	25	26
106	1	7	35	37
107	2	25	26	39
108	1	1	2	3
109	1	43	42	78
110	3	15	14	16
111	4	7	8	31
112	1	21	23	25
113	1	5	7	8
114	1	2	3	5
115	1	60	61	63
116	3	51	50	52
117	6	73	72	74
118	3	60	61	62
119	1	45	47	48
120	1	21	20	29
121	3	62	61	63
122	1	39	80	82
123	3	68	70	71
124	1	66	65	68
125	1	39	80	81
126	3	53	52	54
127	3	52	54	55
128	4	48	72	74
129	3	35	37	38
130	1	8	9	10
131	3	4	3	5
132	1	48	49	58
133	3	55	54	56
134	3	50	52	53
135	6	74	72	75
136	1	10	12	14
137	5	26	39	40
138	1	8	9	18
139	3	20	29	30
140	1	50	49	58
141	1	52	54	56
142	1	60	70	68

Dihedrals

1	4	49	48	47	76
2	1	1	2	3	5
3	4	5	7	8	9
4	1	46	45	47	48
5	1	14	16	18	19
6	1	23	25	27	28
7	5	20	8	31	32
8	1	21	23	25	27
9	4	45	47	48	49
10	5	7	8	31	33
11	4	47	48	60	70
12	5	7	8	31	34
13	1	48	47	76	78
14	2	25	26	39	40
15	1	51	50	49	58
16	1	41	42	43	45
17	1	41	42	78	76
18	1	22	21	23	25
19	1	24	23	25	26
20	4	49	48	60	70
21	1	15	14	16	18
22	1	21	20	29	30
23	1	64	63	65	66
24	1	42	43	45	46
25	4	50	49	48	60
26	1	48	60	61	63
27	1	61	63	65	68
28	1	47	76	78	79
29	1	48	60	61	62
30	5	49	48	72	75
31	1	54	56	58	59
32	1	61	60	70	68
33	4	20	8	7	35
34	1	11	10	9	18
35	1	43	45	47	48
36	1	9	18	16	14
37	5	47	48	72	75
38	1	62	61	60	70
39	5	9	8	31	33
40	1	41	42	78	79
41	5	9	8	31	34
42	7	26	39	80	82
43	1	50	49	58	56
44	7	26	39	80	81
45	1	10	9	18	19
46	5	47	48	72	74
47	1	45	47	76	77
48	1	49	58	56	57
49	4	47	48	49	58
50	4	29	20	8	31
51	3	2	1	41	42
52	1	60	70	68	69
53	1	8	9	10	11
54	4	9	8	7	35
55	4	61	60	48	72
56	1	26	25	27	28
57	1	48	49	58	56
58	1	42	78	76	77
59	1	48	60	70	68
60	1	55	54	56	57
61	1	36	35	37	38
62	2	3	2	1	41
63	4	45	47	48	60
64	1	7	35	37	38
65	1	42	43	45	47
66	1	60	61	63	65
67	1	12	14	16	17
68	4	31	8	7	35
69	1	63	65	68	70
70	8	63	65	66	67
71	1	10	12	14	15
72	1	66	65	68	70
73	1	11	10	12	13
74	1	23	25	27	29
75	1	43	42	78	76
76	1	5	7	35	36
77	1	5	7	35	37
78	6	25	26	39	80
79	1	55	54	56	58
80	1	9	10	12	13
81	1	22	21	20	29
82	1	45	43	42	78
83	1	8	7	35	36
84	1	8	7	35	37
85	1	61	63	65	66
86	1	44	43	45	46
87	4	58	49	48	60
88	4	50	49	48	72
89	4	18	9	8	20
90	4	10	9	8	20
91	1	8	20	29	27
92	1	42	78	76	47
93	1	25	27	29	30
94	1	4	3	5	6
95	1	62	61	63	64
96	1	8	9	18	16
97	1	63	61	60	70
98	1	10	12	14	16
99	4	5	7	8	20
100	5	47	48	72	73
101	1	69	68	70	71
102	4	7	8	20	21
103	8	67	66	65	68
104	4	70	60	48	72
105	5	49	48	72	74
106	4	60	48	47	76
107	1	2	3	5	6
108	1	21	23	25	26
109	1	43	42	78	79
110	1	50	52	54	55
111	4	47	48	49	50
112	1	12	10	9	18
113	1	3	5	7	8
114	1	6	5	7	8
115	1	20	21	23	24
116	1	61	60	70	71
117	1	49	58	56	54
118	1	57	56	58	59
119	2	37	2	1	41
120	5	7	8	31	32
121	5	60	48	72	75
122	1	17	16	18	19
123	1	8	20	29	30
124	7	40	39	80	82
125	7	40	39	80	81
126	1	48	47	76	77
127	1	3	2	37	35
128	1	52	54	56	57
129	4	45	47	48	72
130	2	1	41	42	43
131	1	44	43	45	47
132	1	3	2	37	38
133	1	23	21	20	29
134	4	18	9	8	31
135	4	10	9	8	31
136	1	45	47	76	78
137	4	7	8	9	10
138	5	60	48	72	74
139	1	22	21	23	24
140	1	60	70	68	65
141	1	48	49	50	52
142	1	66	65	68	69
143	1	51	50	52	53
144	1	46	45	47	76
145	1	49	50	52	53
146	1	52	54	56	58
147	4	5	7	8	31
148	1	4	3	2	37
149	1	12	14	16	18
150	4	21	20	8	31
151	1	48	49	50	51
152	5	49	48	72	73
153	1	50	49	58	59
154	4	58	49	48	72
155	2	27	25	26	39
156	1	53	52	54	55
157	5	9	8	31	32
158	4	7	8	9	18
159	4	7	8	20	29
160	5	20	8	31	33
161	5	20	8	31	34
162	1	20	29	27	25
163	1	51	50	52	54
164	1	49	50	52	54
165	1	48	49	58	59
166	1	43	45	47	76
167	1	3	5	7	35
168	1	6	5	7	35
169	1	28	27	29	30
170	1	11	10	12	14
171	1	53	52	54	56
172	1	64	63	65	68
173	1	5	3	2	37
174	1	52	50	49	58
175	4	72	48	47	76
176	1	41	42	43	44
177	1	8	20	21	23
178	1	13	12	14	15
179	1	9	10	12	14
180	1	50	52	54	56
181	1	77	76	78	79
182	4	9	8	20	21
183	1	26	25	27	29
184	1	62	61	63	65
185	1	44	43	42	78
186	1	60	61	63	64
187	2	1	41	42	78
188	1	4	3	5	7
189	1	21	20	29	27
190	1	1	2	37	35
191	1	2	37	35	7
192	1	1	2	37	38
193	4	9	8	20	29
194	2	23	25	26	39
195	1	24	23	25	27
196	5	60	48	72	73
197	4	47	48	60	61
198	1	65	68	70	71
199	1	63	65	68	69
200	1	8	9	18	19
201	1	2	3	5	7
202	1	2	37	35	36
203	1	13	12	14	16
204	1	20	21	23	25
205	4	49	48	60	61
206	1	1	2	3	4
207	1	20	29	27	28
208	1	10	9	18	16
209	1	48	60	70	71
210	1	15	14	16	17
211	1	9	18	16	17
212	1	8	9	10	12
213	1	8	20	21	22

Impropers

1	1	47	48	76	45
3	2	39	80	26	40
5	1	21	23	20	22
6	1	58	59	49	56
8	1	68	70	65	69
9	1	10	11	12	9
10	1	29	27	30	20
12	1	5	3	6	7
13	1	52	50	53	54
15	1	56	58	54	57
17	1	5	6	7	3
18	1	14	16	12	15
19	1	65	66	68	63
23	1	52	53	54	50
25	1	80	39	81	82
29	1	70	68	71	60
34	1	78	76	79	42
35	1	3	4	5	2
38	1	12	13	14	10
42	1	16	18	14	17
47	1	80	81	82	39
49	1	2	1	3	37
50	1	2	37	1	3
53	1	10	12	9	11
57	1	50	52	49	51
59	1	61	60	62	63
60	1	25	23	26	27
71	1	7	8	35	5
73	1	2	3	37	1
77	1	37	38	2	35
83	1	54	56	52	55
86	1	65	68	63	66
89	1	56	54	57	58
97	1	42	43	78	41
101	1	43	44	45	42
103	1	60	48	61	70
110	1	42	78	41	43
111	1	60	61	70	48
114	1	49	50	58	48
116	1	23	25	21	24
119	1	63	65	61	64
123	1	43	42	44	45
124	1	65	63	66	68
125	1	9	10	18	8
126	1	49	58	48	50
127	1	70	60	68	71
128	1	3	5	2	4
130	1	78	42	76	79
132	1	27	28	29	25
138	1	7	5	8	35
140	1	35	37	7	36
142	1	50	51	52	49
146	1	18	19	9	16
149	1	21	20	22	23
151	1	23	21	24	25
154	1	76	47	77	78
155	1	70	71	60	68
157	1	25	27	23	26
161	1	54	55	56	52
162	1	78	79	42	76
166	1	29	20	27	30
169	1	12	14	10	13
170	1	37	35	38	2
174	1	43	45	42	44
176	1	42	41	43	78
177	1	3	2	4	5
179	1	18	16	19	9
183	1	47	76	45	48
185	1	9	18	8	10
189	1	20	8	21	29
196	1	76	78	47	77
198	1	9	8	10	18
199	1	45	43	46	47
202	1	35	7	36	37
204	1	47	45	48	76
207	1	45	47	43	46
211	1	27	29	25	28
213	1	14	12	15	16
215	1	68	69	70	65
218	1	68	65	69	70
224	1	45	46	47	43
225	1	63	61	64	65
233	2	39	26	40	80
237	1	20	21	29	8
238	1	7	35	5	8
243	1	27	25	28	29
244	1	5	7	3	6
245	1	50	49	51	52
246	1	58	56	59	49
249	1	23	24	25	21
252	1	25	26	27	23
257	1	16	14	17	18
259	1	54	52	55	56
266	1	35	36	37	7
267	1	20	29	8	21
272	1	21	22	23	20
274	1	60	70	48	61
279	1	80	82	39	81
283	1	58	49	56	59
284	1	63	64	65	61
289	1	56	57	58	54
293	1	61	63	60	62
294	1	10	9	11	12
296	1	14	15	16	12
298	1	61	62	63	60
300	1	76	77	78	47
301	1	52	54	50	53
302	2	39	40	80	26
304	1	18	9	16	19
306	1	37	2	35	38
309	1	29	30	20	27
313	1	12	10	13	14
315	1	49	48	50	58
323	1	16	17	18	14
