Title

13500 atoms
13875 bonds
27000 angles
58000 dihedrals
2250 impropers

11 atom types
14 bond types
9 angle types
35 dihedral types
3 improper types
-16.86423984 166.2265209 xlo xhi
-15.88927411 162.5999177 ylo yhi
-17.38375321 166.6785874 zlo zhi
0.0 0.0 0.0 xy xz yz

Masses

1	12.01078
2	15.99943
3	14.00672
4	12.01078
5	1.007947
6	1.007947
7	1.007947
8	15.99943
9	12.01078
10	15.99943
11	1.007947


Pair Coeffs

1	0.086879315	3.4806469
2	0.2102061	3.0398122
3	0.16769152	3.206876
4	0.10884061	3.3795318
5	0.015779483	2.6445434
6	0.014090815	1.1034277
7	0.016409246	2.5832257
8	0.16846514	3.0251065
9	0.21	3.3996695
10	0.20947353	2.99716
11	1.2326e-05	0.53453923

Bond Coeffs

1 harmonic	582.698766451	1.225198386222
2 harmonic	492.76746816345	1.381897776683
3 harmonic	279.1350963404	1.454628925034
4 harmonic	352.0565580496	1.450098586273
5 harmonic	505.144496193	1.019481865027
6 harmonic	264.62148576755	1.52190126495
7 harmonic	370.04670688625	1.093899492634
8 harmonic	301.15400723785	1.345741232799
9 harmonic	366.7408841747	1.425895053732
10 harmonic	300.03137914615	1.451203938761
11 harmonic	366.34047229585	1.464762957261
12 harmonic	602.81384337	1.196112346392
13 harmonic	329.96998057905	1.427343958716
14 harmonic	543.5267831885	0.9716763312559


Angle Coeffs

1 harmonic	55.42182150775	117.3465570514
2 harmonic	63.44422595415	115.5071327674
3 harmonic	57.8982893754	126.8062420451
4 harmonic	53.20531626545	116.5475862634
5 harmonic	48.776492647595	115.6030999533
6 harmonic	65.09061609600001	110.3538806181
7 harmonic	201.41175231035	127.4691416191
8 harmonic	55.07882548015	112.8714009681
9 harmonic	33.56981613361	180


Dihedral Coeffs

1 fourier 1	-0.1488678166443	4	180
2 fourier 1	-0.1230328948768	3	180
3 fourier 1	0.2939295466901	2	0
4 fourier 1	-0.3024127022865	1	0
5 fourier 1	0.182238503271	2	0
6 fourier 1	0.02972342374561	3	0
7 fourier 1	1.809047390003	2	180
8 fourier 1	-0.04816277792592	1	0
9 fourier 1	3.101948770557	2	180
10 fourier 1	-0.4252153282372	1	0
11 fourier 1	2.348375642009	2	180
12 fourier 1	1.256156174911	1	0
13 fourier 1	0.9974165607242	2	180
14 fourier 1	0.1155372516788	3	0
15 fourier 1	0.1040663847541	3	0
16 fourier 1	0.09223874044423	3	0
17 fourier 1	0.3159935921949	2	180
18 fourier 1	0.3247796806857	1	180
19 fourier 1	0.1911926717192	3	0
20 fourier 1	2.779853741805	2	180
21 fourier 1	0.1918272375143	3	0
22 fourier 1	0.9202179876409	1	180
23 fourier 1	0.0473758381877	3	0
24 fourier 1	0.4860993122944	2	180
25 fourier 1	0.8916986138746	1	0
26 fourier 1	1.163809172478	2	180
27 fourier 1	0.1679186987369	1	180
28 fourier 1	0.1115525666802	3	0
29 fourier 1	0.3432490222662	1	0
30 fourier 1	0.457973137376	1	0
31 fourier 1	-1.382973039546	1	0
32 fourier 1	0	1	0
33 fourier 1	0.3445382149273	3	0
34 fourier 1	0.1364556373303	1	0
35 fourier 1	0.3026390167484	3	0


Improper Coeffs

1 0.3333333333333333	-1	2
2 0.3666666666666667	-1	2
3 3.5	-1	2


Atoms

1	6	1	0.54092216	4.8879481	-1.9676348	-3.8070215
2	6	2	-0.69468469	5.0622216	-2.3454352	-2.6178796
3	6	3	-0.49696559	3.912316	-0.97141013	-4.127461
4	6	4	0.022567764	3.0583463	-0.34556072	-3.1175391
5	6	4	-0.078571587	1.9420145	-1.3047943	-2.6563349
6	6	5	0.079108172	2.4170272	-2.2540443	-2.3195376
7	6	4	-0.17324806	0.97558509	-1.6403465	-3.8073974
8	6	5	0.096574873	1.5360556	-2.0250698	-4.6863865
9	6	5	0.096574873	0.4495669	-0.71278923	-4.1246534
10	6	4	-0.13338273	-0.065473438	-2.696544	-3.3848835
11	6	5	0.086288706	0.30813654	-3.709534	-3.6498774
12	6	5	0.086288706	-0.99931687	-2.5274556	-3.9644856
13	6	4	-0.17324807	-0.38952515	-2.6746074	-1.8779
14	6	5	0.096574843	0.31089947	-3.3518858	-1.3396804
15	6	5	0.096574843	-1.4174576	-3.0686822	-1.7269266
16	6	4	-0.078432716	-0.2716631	-1.2550912	-1.292997
17	6	4	0.019247128	-0.7242624	-1.2415229	0.18199441
18	6	3	-0.45150832	-0.78726162	0.12133377	0.71352218
19	6	1	0.77969997	-1.1338106	0.377125	2.0773454
20	6	2	-0.61914087	-1.3878635	-0.57023456	2.8670617
21	6	6	0.32239526	-0.59618213	0.94296306	0.097262539
22	6	7	0.067284525	-0.021476152	-1.8472837	0.7956371
23	6	7	0.067284525	-1.734948	-1.6989217	0.26332136
24	6	5	0.079108186	-0.96633442	-0.59995132	-1.8676417
25	6	4	-0.18040072	1.1732644	-0.70270879	-1.4518934
26	6	5	0.10198711	1.107634	0.40233091	-1.5594708
27	6	5	0.10198711	1.7682951	-0.90293216	-0.53304727
28	6	7	0.0618634	2.6029141	0.57392538	-3.5455763
29	6	7	0.0618634	3.6818293	-0.036492015	-2.2507799
30	6	6	0.31456875	3.8506557	-0.63768463	-5.1149382
31	7	8	-0.48661683	-1.1771624	1.3547113	2.4225275
32	7	4	0.090518006	-2.0100132	1.3450512	3.5505201
33	7	4	-0.072933606	-3.4888726	1.1926255	3.1421791
34	7	5	0.08664573	-3.5869234	0.21908631	2.6115167
35	7	4	-0.16436989	-4.4088319	1.1245498	4.3907773
36	7	5	0.096141659	-3.8624892	0.7193607	5.2698299
37	7	5	0.096141659	-5.2486373	0.42335872	4.1888742
38	7	4	-0.16393908	-4.9982913	2.4959667	4.7465911
39	7	5	0.096763879	-5.5861924	2.4089898	5.6861406
40	7	5	0.096763879	-4.1594343	3.1942309	4.9608851
41	7	4	-0.072129406	-5.863006	3.0774059	3.5924092
42	7	4	0.01782173	-7.3603064	2.7932196	3.804352
43	7	8	-0.14496813	-7.8205097	3.4642286	4.945631
44	7	7	0.097481907	-7.5252827	1.6974426	3.917288
45	7	7	0.097481907	-7.9336567	3.1493997	2.9189193
46	7	5	0.089652189	-5.7304237	4.1831519	3.6017771
47	7	4	-0.16393905	-5.4153593	2.5661402	2.1991412
48	7	5	0.096763887	-5.6872842	3.3158178	1.4247239
49	7	5	0.096763887	-5.9367573	1.6158937	1.9430888
50	7	4	-0.1643699	-3.90525	2.3158518	2.1561798
51	7	5	0.096141659	-3.3854204	3.269061	2.4017555
52	7	5	0.096141659	-3.6093697	2.030231	1.1228122
53	7	7	0.097406596	-1.8686333	2.2983598	4.1045773
54	7	7	0.097406596	-1.7104306	0.51487073	4.2306434
55	4	1	0.5409221	5.4915981	-2.3990842	-4.5954446
56	4	2	-0.69468475	5.254626	-3.5734556	-4.9837087
57	4	3	-0.49696553	6.5457641	-1.6308451	-5.1818188
58	4	4	0.022567757	7.3763927	-2.1695957	-6.2601147
59	4	4	-0.078808076	8.4925515	-1.181682	-6.6687982
60	4	5	0.079108172	8.0033983	-0.21983428	-6.9418825
61	4	4	-0.17324806	9.4573516	-0.91303592	-5.4815291
62	4	5	0.096574873	9.0375594	-0.11485419	-4.8317773
63	4	5	0.096574873	9.5756554	-1.8246915	-4.8548638
64	4	4	-0.13349143	10.844164	-0.47932323	-5.9643282
65	4	5	0.086288706	10.740159	0.45135174	-6.5662794
66	4	5	0.086288706	11.486366	-0.24095731	-5.0888676
67	4	4	-0.16896828	11.520525	-1.5722521	-6.8165948
68	4	5	0.096941233	12.208743	-1.0695084	-7.5322684
69	4	5	0.096941233	12.146049	-2.2137763	-6.1575923
70	4	4	-0.055058159	10.513903	-2.4760657	-7.5746529
71	4	4	0.16814258	11.173349	-3.0907568	-8.8217517
72	4	3	-0.63235808	10.299254	-4.1004364	-9.4134908
73	4	9	0.5984888	10.657299	-5.3155365	-9.5337255
74	4	2	-0.47908614	11.005243	-6.4978372	-9.6506175
75	4	7	0.06061481	11.369926	-2.2998632	-9.5775287
76	4	7	0.06061481	12.153236	-3.5402608	-8.5378556
77	4	5	0.08257676	10.223753	-3.3128278	-6.8992572
78	4	4	-0.17610983	9.2398134	-1.6853558	-7.9357328
79	4	5	0.10237521	8.5641886	-2.3042187	-8.5669293
80	4	5	0.10237521	9.5296473	-0.80831474	-8.555879
81	4	7	0.0618634	6.7225461	-2.3755307	-7.1347783
82	4	7	0.0618634	7.8300516	-3.1316666	-5.9344366
83	4	6	0.31456875	6.6911433	-0.65757925	-4.8318467
84	5	8	-0.14496811	-8.780521	3.2286298	5.0356121
85	5	4	0.017821711	-9.3105602	4.071782	6.0238432
86	5	4	-0.072129398	-8.8462981	3.6342265	7.427186
87	5	5	0.089652203	-7.735276	3.7069398	7.4463564
88	5	4	-0.16315307	-9.3840307	4.5981356	8.5184879
89	5	5	0.096763887	-9.5556934	5.6153943	8.1049208
90	5	5	0.096763887	-8.6186259	4.7080667	9.3185658
91	5	4	-0.15609337	-10.680151	4.0811424	9.1555347
92	5	5	0.096763879	-11.063151	4.8393092	9.8732217
93	5	5	0.096763879	-11.448943	3.9845594	8.3575434
94	5	4	-0.11355174	-10.483319	2.7014006	9.8435732
95	5	4	0.079940901	-10.239363	2.8498844	11.35581
96	5	10	-0.67217863	-11.377257	3.3799381	11.97749
97	5	11	0.38023456	-11.150814	3.4666433	12.939692
98	5	7	0.086239651	-9.3649289	3.5162392	11.533896
99	5	7	0.086239651	-10.018599	1.8500106	11.794432
100	5	5	0.093252264	-11.428841	2.1275476	9.7160338
101	5	4	-0.15609337	-9.3436766	1.8727139	9.198457
102	5	5	0.096763887	-9.5385595	0.78889508	9.3564774
103	5	5	0.096763887	-8.3657718	2.1095025	9.6752999
104	5	4	-0.16315306	-9.2308917	2.1550902	7.6973893
105	5	5	0.096763887	-10.204586	1.9079988	7.2194842
106	5	5	0.096763887	-8.4614717	1.4855717	7.254174
107	5	7	0.097481907	-10.419047	4.0343781	5.9650266
108	5	7	0.097481907	-8.9997806	5.1229193	5.8250078
109	6	1	0.54092216	3.1039676	1.9808235	29.502247
110	6	2	-0.69468469	2.4512701	2.9254961	30.020651
111	6	3	-0.49696559	2.8754854	0.62467776	29.896794
112	6	4	0.022567764	1.8968891	0.2513166	30.918482
113	6	4	-0.078571587	2.4097391	0.58720542	32.333826
114	6	5	0.079108172	2.6938811	1.6637782	32.353808
115	6	4	-0.17324806	3.6584909	-0.23967906	32.692165
116	6	5	0.096574873	4.4411626	-0.12024614	31.912471
117	6	5	0.096574873	3.3843721	-1.3172365	32.730084
118	6	4	-0.13338273	4.2483593	0.18350586	34.052622
119	6	5	0.086288706	5.0326933	0.9546286	33.890928
120	6	5	0.086288706	4.7432307	-0.6981519	34.515628
121	6	4	-0.17324807	3.1997471	0.75125904	35.029637
122	6	5	0.096574843	3.1143724	1.8511444	34.881501
123	6	5	0.096574843	3.5503912	0.58054841	36.070137
124	6	4	-0.078432716	1.8189835	0.10294082	34.819389
125	6	4	0.019247128	0.82443751	0.59531359	35.891339
126	6	3	-0.45150832	-0.44471055	-0.13163722	35.822967
127	6	1	0.77969997	-1.5380532	0.18910081	36.687414
128	6	2	-0.61914087	-1.4418213	1.1183092	37.531805
129	6	6	0.32239526	-0.572434	-0.91833118	35.14757
130	6	7	0.067284525	0.63672021	1.6835268	35.757301
131	6	7	0.067284525	1.2639847	0.44335251	36.901794
132	6	5	0.079108186	1.9442918	-0.99652435	34.951552
133	6	4	-0.18040072	1.2882683	0.37046308	33.382391
134	6	5	0.10198711	0.65443333	-0.49368908	33.084923
135	6	5	0.10198711	0.63326768	1.2700718	33.372028
136	6	7	0.0618634	1.6949018	-0.83964667	30.847143
137	6	7	0.0618634	0.94005386	0.78126828	30.720634
138	6	6	0.31456875	3.3880462	-0.13160695	29.391225
139	7	8	-0.48661683	-2.4224922	-0.34932308	36.619795
140	7	4	0.090518006	-3.074248	-0.20626882	37.853023
141	7	4	-0.072933606	-2.3860481	-1.0539699	38.941501
142	7	5	0.08664573	-1.341339	-0.68238588	39.038986
143	7	4	-0.16436989	-3.0702177	-0.85426576	40.320627
144	7	5	0.096141659	-3.5521612	0.1450137	40.388251
145	7	5	0.096141659	-2.2979384	-0.88839029	41.120706
146	7	4	-0.16393908	-4.1134858	-1.9422483	40.608265
147	7	5	0.096763879	-4.6253644	-1.7137436	41.568323
148	7	5	0.096763879	-4.8926856	-1.9003968	39.815629
149	7	4	-0.072129406	-3.4841706	-3.3640253	40.629513
150	7	4	0.01782173	-3.1577944	-3.820527	42.062229
151	7	8	-0.14496813	-4.3391224	-3.9601609	42.803528
152	7	7	0.097481907	-2.4886136	-3.0775324	42.552999
153	7	7	0.097481907	-2.6337351	-4.8022345	42.027612
154	7	5	0.089652189	-4.2426301	-4.0698028	40.220909
155	7	4	-0.16393905	-2.221609	-3.4682335	39.736174
156	7	5	0.096763887	-2.0958853	-4.518329	39.393866
157	7	5	0.096763887	-1.3090386	-3.192069	40.311791
158	7	4	-0.1643699	-2.3229	-2.5453486	38.518412
159	7	5	0.096141659	-3.2294733	-2.8295954	37.938355
160	7	5	0.096141659	-1.4407777	-2.7068479	37.860574
161	7	7	0.097406596	-4.1312431	-0.52996879	37.735785
162	7	7	0.097406596	-3.0838855	0.86772243	38.149615
163	4	1	0.5409221	3.8428311	2.2000451	28.741869
164	4	2	-0.69468475	4.9428853	2.7129279	29.077852
165	4	3	-0.49696553	3.5587208	1.9047647	27.371692
166	4	4	0.022567757	4.5345659	2.1710424	26.313514
167	4	4	-0.078808076	3.9646665	1.8409593	24.915278
168	4	5	0.079108172	3.6286194	0.77995658	24.933785
169	4	4	-0.17324806	2.7337594	2.7320538	24.593663
170	4	5	0.096574873	1.8191416	2.279534	25.034341
171	4	5	0.096574873	2.8521637	3.7446162	25.039217
172	4	4	-0.13349143	2.5283162	2.8927213	23.084879
173	4	5	0.086288706	2.3766156	1.8863202	22.633812
174	4	5	0.086288706	1.6078563	3.4862515	22.894752
175	4	4	-0.16896828	3.7334538	3.5825746	22.414012
176	4	5	0.096941233	3.7896892	3.2237398	21.362033
177	4	5	0.096941233	3.5513437	4.6791613	22.375914
178	4	4	-0.055058159	5.0766673	3.3300794	23.146707
179	4	4	0.16814258	6.2589723	3.4789166	22.173069
180	4	3	-0.63235808	7.5244323	3.4508628	22.902092
181	4	9	0.5984888	8.3389831	4.4281019	22.87696
182	4	2	-0.47908614	9.1315614	5.3787888	22.852917
183	4	7	0.06061481	6.2519821	2.6473888	21.435596
184	4	7	0.06061481	6.1544918	4.4344823	21.608438
185	4	5	0.08257676	5.1907102	4.1063787	23.937195
186	4	4	-0.17610983	5.071314	1.9465214	23.828356
187	4	5	0.10237521	6.0700613	1.7249061	24.265688
188	4	5	0.10237521	4.8906507	1.1691501	23.053217
189	4	7	0.0618634	5.4354533	1.5491701	26.504924
190	4	7	0.0618634	4.839419	3.2402533	26.349648
191	4	6	0.31456875	2.6365302	1.4677582	27.149315
192	5	8	-0.14496811	-4.0613825	-4.2380815	43.715036
193	5	4	0.017821711	-5.2304384	-4.6103052	44.395628
194	5	4	-0.072129398	-6.0569815	-3.3697673	44.788384
195	5	5	0.089652203	-6.3370433	-2.8462675	43.846291
196	5	4	-0.16315307	-7.3788563	-3.7796931	45.49111
197	5	5	0.096763887	-7.7113202	-4.7879115	45.162044
198	5	5	0.096763887	-8.1843357	-3.0705606	45.197192
199	5	4	-0.15609337	-7.2489691	-3.7590794	47.019424
200	5	5	0.096763879	-8.1940557	-4.1310142	47.472256
201	5	5	0.096763879	-6.4531029	-4.4782893	47.313523
202	5	4	-0.11355174	-6.8835625	-2.3468209	47.555923
203	5	4	0.079940901	-8.1306875	-1.5765587	48.024749
204	5	10	-0.67217863	-8.7077628	-2.2196621	49.127312
205	5	11	0.38023456	-9.510179	-1.6878682	49.368039
206	5	7	0.086239651	-8.8695624	-1.5121352	47.19391
207	5	7	0.086239651	-7.8375365	-0.54315727	48.319737
208	5	5	0.093252264	-6.2282386	-2.4873874	48.444955
209	5	4	-0.15609337	-6.0937982	-1.5043792	46.522363
210	5	5	0.096763887	-5.459432	-0.76263081	47.056219
211	5	5	0.096763887	-6.7887957	-0.93684064	45.863103
212	5	4	-0.16315306	-5.2076553	-2.3907369	45.642146
213	5	5	0.096763887	-4.505951	-2.9494134	46.300189
214	5	5	0.096763887	-4.5966591	-1.7483679	44.970769
215	5	7	0.097481907	-4.9451603	-5.1770339	45.30724
216	5	7	0.097481907	-5.8364043	-5.2903697	43.75428
217	6	1	0.54092216	0.14709506	-0.71086535	63.258857
218	6	2	-0.69468469	1.0169341	0.11625265	63.641504
219	6	3	-0.49696559	-0.90306937	-1.1327126	64.134187
220	6	4	0.022567764	-1.0280904	-0.65174333	65.510389
221	6	4	-0.078571587	0.018310473	-1.3121802	66.431206
222	6	5	0.079108172	1.0257282	-1.1477757	65.985981
223	6	4	-0.17324806	-0.20831635	-2.8312149	66.5439
224	6	5	0.096574873	-0.24568718	-3.2949708	65.534794
225	6	5	0.096574873	-1.1884281	-3.0186662	67.035786
226	6	4	-0.13338273	0.90891584	-3.5128815	67.359373
227	6	5	0.086288706	1.7042357	-3.8696035	66.669322
228	6	5	0.086288706	0.48494822	-4.4081064	67.864761
229	6	4	-0.17324807	1.5541664	-2.5904044	68.412548
230	6	5	0.096574843	2.4111501	-2.0484763	67.953338
231	6	5	0.096574843	1.9578921	-3.216081	69.237331
232	6	4	-0.078432716	0.54481622	-1.5670745	68.96485
233	6	4	0.019247128	1.1812952	-0.74473234	70.104708
234	6	3	-0.45150832	0.19608369	0.11488446	70.763712
235	6	1	0.77969997	0.5678897	1.0070945	71.817876
236	6	2	-0.61914087	1.7634152	1.0850099	72.205603
237	6	6	0.32239526	-0.81071771	0.080653091	70.487051
238	6	7	0.067284525	2.007802	-0.11975257	69.700111
239	6	7	0.067284525	1.6110397	-1.4349546	70.863804
240	6	5	0.079108186	-0.30844495	-2.1405415	69.395052
241	6	4	-0.18040072	0.0024135638	-0.6492412	67.832785
242	6	5	0.10198711	-1.0361073	-0.35369004	68.099462
243	6	5	0.10198711	0.59972063	0.2878523	67.773547
244	6	7	0.0618634	-2.0491089	-0.88261521	65.884967
245	6	7	0.0618634	-0.90960033	0.45337315	65.524661
246	6	6	0.31456875	-1.6419823	-1.7645143	63.753241
247	7	8	-0.48661683	-0.15482484	1.5984159	72.270344
248	7	4	0.090518006	0.34213375	1.9409107	73.535979
249	7	4	-0.072933606	0.27359788	0.73858949	74.498645
250	7	5	0.08664573	0.90797315	-0.067645018	74.066732
251	7	4	-0.16436989	0.87511297	1.097438	75.884057
252	7	5	0.096141659	1.637516	1.901223	75.794206
253	7	5	0.096141659	1.3999746	0.20757374	76.296814
254	7	4	-0.16393908	-0.20425251	1.5302918	76.885285
255	7	5	0.096763879	0.28205265	1.8468004	77.833586
256	7	5	0.096763879	-0.7209987	2.4275667	76.479025
257	7	4	-0.072129406	-1.2518865	0.40889651	77.136033
258	7	4	0.01782173	-0.92691973	-0.40031148	78.403775
259	7	8	-0.14496813	-1.0277264	0.41901531	79.536515
260	7	7	0.097481907	0.10202598	-0.82065123	78.331082
261	7	7	0.097481907	-1.6486972	-1.2424891	78.500523
262	7	5	0.089652189	-2.2358952	0.90366088	77.301185
263	7	4	-0.16393905	-1.406382	-0.54204949	75.921616
264	7	5	0.096763887	-2.4264192	-0.98385997	75.92472
265	7	5	0.096763887	-0.67749185	-1.3817601	75.984801
266	7	4	-0.1643699	-1.1773492	0.19872454	74.601117
267	7	5	0.096141659	-1.9135758	1.0309927	74.534499
268	7	5	0.096141659	-1.3763164	-0.49242251	73.752765
269	7	7	0.097406596	-0.2630335	2.7815151	73.939614
270	7	7	0.097406596	1.392781	2.2997503	73.441684
271	4	1	0.5409221	0.19252469	-1.1011774	62.250023
272	4	2	-0.69468475	1.0678681	-1.9579005	61.957018
273	4	3	-0.49696553	-0.73946714	-0.63888702	61.268713
274	4	4	0.022567757	-0.72322116	-1.1506919	59.897323
275	4	4	-0.078808076	-1.771958	-0.44133251	59.010888
276	4	5	0.079108172	-2.7625542	-0.56264048	59.503839
277	4	4	-0.17324806	-1.4693392	1.078271	58.902054
278	4	5	0.096574873	-1.9019423	1.6093498	59.777444
279	4	5	0.096574873	-0.37237244	1.2638525	58.908725
280	4	4	-0.13349143	-2.0504023	1.682161	57.620597
281	4	5	0.086288706	-3.1531868	1.5298994	57.619665
282	4	5	0.086288706	-1.8644264	2.7780154	57.606853
283	4	4	-0.16896828	-1.4397993	1.0404789	56.358169
284	4	5	0.096941233	-2.1973212	1.0997685	55.545009
285	4	5	0.096941233	-0.56232248	1.640969	56.031728
286	4	4	-0.055058159	-0.98340351	-0.42642715	56.569613
287	4	4	0.16814258	-0.97691972	-1.1878372	55.232384
288	4	3	-0.63235808	-0.34965869	-2.4968358	55.395835
289	4	9	0.5984888	0.69078255	-2.8321088	54.744533
290	4	2	-0.47908614	1.7031752	-3.1585107	54.111218
291	4	7	0.06061481	-2.0181406	-1.3322081	54.871316
292	4	7	0.06061481	-0.43256569	-0.58654336	54.467561
293	4	5	0.08257676	0.061670465	-0.41144083	56.954467
294	4	4	-0.17610983	-1.8723235	-1.1255379	57.618408
295	4	5	0.10237521	-1.6094603	-2.2040032	57.693805
296	4	5	0.10237521	-2.9289101	-1.0853705	57.272291
297	4	7	0.0618634	-0.93807201	-2.2405554	59.928909
298	4	7	0.0618634	0.29039568	-1.0114172	59.460704
299	4	6	0.31456875	-1.4531854	0.062474793	61.567978
300	5	8	-0.14496811	-0.79196806	-0.15321845	80.312525
301	5	4	0.017821711	-1.1161001	0.57850545	81.464899
302	5	4	-0.072129398	-0.092901434	1.7058948	81.706607
303	5	5	0.089652203	-0.13185382	2.3836568	80.823914
304	5	4	-0.16315307	-0.47947481	2.5534336	82.948161
305	5	5	0.096763887	-1.5771157	2.5321656	83.121519
306	5	5	0.096763887	-0.21003617	3.6170168	82.7631
307	5	4	-0.15609337	0.24619508	2.0830801	84.215129
308	5	5	0.096763879	-0.11978172	2.6699234	85.085908
309	5	5	0.096763879	-0.03432382	1.0240517	84.407295
310	5	4	-0.11355174	1.7909037	2.1840744	84.075478
311	5	4	0.079940901	2.334178	3.4830323	84.696753
312	5	10	-0.67217863	2.1178184	3.4822158	86.080745
313	5	11	0.38023456	2.4715825	4.3466302	86.415804
314	5	7	0.086239651	1.8304751	4.3623775	84.234785
315	5	7	0.086239651	3.4281693	3.5572039	84.500398
316	5	5	0.093252264	2.2331095	1.3353495	84.64443
317	5	4	-0.15609337	2.2643196	2.0575297	82.605259
318	5	5	0.096763887	3.3021265	1.6574157	82.583383
319	5	5	0.096763887	2.2798039	3.0542073	82.109133
320	5	4	-0.16315306	1.3458088	1.1316756	81.802268
321	5	5	0.096763887	1.3391459	0.13279706	82.291887
322	5	5	0.096763887	1.7605681	0.99964615	80.778919
323	5	7	0.097481907	-1.1263574	-0.11358835	82.33352
324	5	7	0.097481907	-2.1409451	1.0030669	81.362676
325	6	1	0.54092216	-5.3195504	-0.62000085	100.89368
326	6	2	-0.69468469	-4.569656	-1.6254642	100.77593
327	6	3	-0.49696559	-4.844637	0.58555816	101.50038
328	6	4	0.022567764	-3.4866423	0.72548571	102.02685
329	6	4	-0.078571587	-3.3255253	-0.023518668	103.36553
330	6	5	0.079108172	-3.6431871	-1.0798876	103.21282
331	6	4	-0.17324806	-4.2169239	0.58583621	104.46354
332	6	5	0.096574873	-5.2737738	0.63525707	104.12385
333	6	5	0.096574873	-3.8819149	1.6264111	104.67013
334	6	4	-0.13338273	-4.1551227	-0.23676475	105.76637
335	6	5	0.086288706	-4.9787194	-0.98350756	105.77069
336	6	5	0.086288706	-4.3250703	0.44657058	106.62705
337	6	4	-0.17324807	-2.8198088	-0.98170676	105.96256
338	6	5	0.096574843	-2.8865555	-1.9890036	105.49364
339	6	5	0.096574843	-2.6491795	-1.1303094	107.05046
340	6	4	-0.078432716	-1.6425735	-0.20948044	105.33901
341	6	4	0.019247128	-0.30720527	-0.91214387	105.66101
342	6	3	-0.45150832	0.84037016	-0.11140419	105.23002
343	6	1	0.77969997	2.1815266	-0.58537597	105.37898
344	6	2	-0.61914087	2.4140114	-1.7166671	105.88079
345	6	6	0.32239526	0.70252991	0.83852184	104.8177
346	6	7	0.067284525	-0.27577054	-1.9053066	105.16096
347	6	7	0.067284525	-0.23050753	-1.0763381	106.75849
348	6	5	0.079108186	-1.6185893	0.79916915	105.81234
349	6	4	-0.18040072	-1.839103	-0.031575332	103.80672
350	6	5	0.10198711	-1.3506326	0.92164339	103.50711
351	6	5	0.10198711	-1.3232509	-0.84697787	103.25224
352	6	7	0.0618634	-3.2642727	1.80439	102.1772
353	6	7	0.0618634	-2.7617886	0.33661183	101.27926
354	6	6	0.31456875	-5.4770761	1.4163033	101.51339
355	7	8	-0.48661683	2.9743993	0.0086869824	105.07052
356	7	4	0.090518006	4.1019453	-0.42691716	105.78114
357	7	4	-0.072933606	4.0406927	0.037366105	107.25005
358	7	5	0.08664573	3.1302962	-0.41582774	107.70259
359	7	4	-0.16436989	5.2591616	-0.49084083	108.05397
360	7	5	0.096141659	5.6495567	-1.4350053	107.61631
361	7	5	0.096141659	4.9367307	-0.73189673	109.0911
362	7	4	-0.16393908	6.391763	0.54198708	108.12698
363	7	5	0.096763879	7.265486	0.090909396	108.64571
364	7	5	0.096763879	6.7231829	0.77403606	107.09089
365	7	4	-0.072129406	5.939589	1.8565332	108.82372
366	7	4	0.01782173	6.3288742	1.8746285	110.31225
367	7	8	-0.14496813	7.7242239	1.881941	110.44455
368	7	7	0.097481907	5.9047489	0.98152162	110.82526
369	7	7	0.097481907	5.9147528	2.7899707	110.79208
370	7	5	0.089652189	6.4777075	2.6971567	108.32964
371	7	4	-0.16393905	4.4200035	2.1196593	108.66688
372	7	5	0.096763887	4.2255934	3.2126179	108.72457
373	7	5	0.096763887	3.8499504	1.6341034	109.49129
374	7	4	-0.1643699	3.8957339	1.5798557	107.33321
375	7	5	0.096141659	4.4590022	2.0739877	106.50998
376	7	5	0.096141659	2.8248986	1.8580432	107.21965
377	7	7	0.097406596	5.0110377	-0.013310823	105.29304
378	7	7	0.097406596	4.1708101	-1.5378729	105.73063
379	4	1	0.5409221	-6.3355732	-0.66863987	100.52289
380	4	2	-0.69468475	-7.1970143	-1.3271394	101.16348
381	4	3	-0.49696553	-6.6824427	0.013581813	99.314772
382	4	4	0.022567757	-8.0471325	-0.013408201	98.7858
383	4	4	-0.078808076	-8.150183	0.72910892	97.434188
384	4	5	0.079108172	-7.7700282	1.7633548	97.591715
385	4	4	-0.17324806	-7.2624558	0.046829778	96.357595
386	4	5	0.096574873	-6.2187269	0.41954769	96.442498
387	4	5	0.096574873	-7.2358346	-1.0551676	96.508307
388	4	4	-0.13349143	-7.7733345	0.32526114	94.941287
389	4	5	0.086288706	-7.7732666	1.4251149	94.769125
390	4	5	0.086288706	-7.0817058	-0.12912615	94.199091
391	4	4	-0.16896828	-9.1958392	-0.23051662	94.727025
392	4	5	0.096941233	-9.6970288	0.40151299	93.960258
393	4	5	0.096941233	-9.1265674	-1.2587008	94.308507
394	4	4	-0.055058159	-10.041396	-0.281857	96.025954
395	4	4	0.16814258	-11.543347	-0.23358805	95.694619
396	4	3	-0.63235808	-12.336866	-0.49380095	96.893063
397	4	9	0.5984888	-13.139733	-1.4780014	96.969706
398	4	2	-0.47908614	-13.920744	-2.435584	97.044683
399	4	7	0.06061481	-11.813538	0.76843871	95.296758
400	4	7	0.06061481	-11.771582	-0.98572397	94.90403
401	4	5	0.08257676	-9.838615	-1.2528382	96.532503
402	4	4	-0.17610983	-9.6331284	0.85535633	96.984582
403	4	5	0.10237521	-10.308125	0.8794634	97.868702
404	4	5	0.10237521	-9.7696553	1.8275714	96.461186
405	4	7	0.0618634	-8.718828	0.4690978	99.528077
406	4	7	0.0618634	-8.375398	-1.0685911	98.658192
407	4	6	0.31456875	-5.9329832	0.55591843	98.829959
408	5	8	-0.14496811	7.908702	1.8767657	111.41983
409	5	4	0.017821711	9.281676	2.1230127	111.57067
410	5	4	-0.072129398	10.108964	0.88050959	111.18577
411	5	5	0.089652203	9.8958239	0.65896567	110.11549
412	5	4	-0.16315307	11.630427	1.1669909	111.29665
413	5	5	0.096763887	11.84654	2.24685	111.14658
414	5	5	0.096763887	12.164916	0.62290383	110.4865
415	5	4	-0.15609337	12.204855	0.71446599	112.64509
416	5	5	0.096763879	13.275632	1.0086216	112.70418
417	5	5	0.096763879	11.679689	1.2688055	113.45384
418	5	4	-0.11355174	12.025494	-0.81238701	112.87395
419	5	4	0.079940901	13.293512	-1.597099	112.49345
420	5	10	-0.67217863	14.349619	-1.248005	113.34493
421	5	11	0.38023456	15.13543	-1.7706861	113.03845
422	5	7	0.086239651	13.570242	-1.3787856	111.43698
423	5	7	0.086239651	13.095209	-2.6890028	112.58987
424	5	5	0.093252264	11.854617	-0.96827255	113.96303
425	5	4	-0.15609337	10.797771	-1.3859275	112.122
426	5	5	0.096763887	10.424178	-2.2874617	112.65611
427	5	5	0.096763887	11.078496	-1.700345	111.09143
428	5	4	-0.16315306	9.6726231	-0.35160658	112.02259
429	5	5	0.096763887	9.3847743	-0.045794142	113.05271
430	5	5	0.096763887	8.7814535	-0.82191224	111.55213
431	5	7	0.097481907	9.479363	2.3940947	112.62946
432	5	7	0.097481907	9.5771489	2.9933518	110.94122
433	6	1	0.54092216	-5.8545521	-2.0910179	141.33719
434	6	2	-0.69468469	-4.9555291	-2.9121819	141.66062
435	6	3	-0.49696559	-5.59224	-1.0445308	140.39748
436	6	4	0.022567764	-4.2841547	-0.85264224	139.77059
437	6	4	-0.078571587	-3.275742	-0.23167522	140.75879
438	6	5	0.079108172	-3.248738	-0.86740028	141.67272
439	6	4	-0.17324806	-3.7001489	1.1873469	141.18043
440	6	5	0.096574873	-4.7391978	1.1818314	141.57427
441	6	5	0.096574873	-3.6825422	1.8535624	140.28961
442	6	4	-0.13338273	-2.7647019	1.7613019	142.26366
443	6	5	0.086288706	-3.1832347	1.5374533	143.26899
444	6	5	0.086288706	-2.7346425	2.8678772	142.15792
445	6	4	-0.17324807	-1.329116	1.2034614	142.19735
446	6	5	0.096574843	-1.2606902	0.2848157	142.82216
447	6	5	0.096574843	-0.63300128	1.9540341	142.62955
448	6	4	-0.078432716	-0.91817801	0.86531178	140.75242
449	6	4	0.019247128	0.56167953	0.43167914	140.70129
450	6	3	-0.45150832	1.0283079	0.27029894	139.32286
451	6	1	0.77969997	2.3549083	-0.17656075	139.02962
452	6	2	-0.61914087	3.1617495	-0.4539829	139.95576
453	6	6	0.32239526	0.40194541	0.49750868	138.51824
454	6	7	0.067284525	0.69111515	-0.52630557	141.25168
455	6	7	0.067284525	1.190721	1.2025497	141.19866
456	6	5	0.079108186	-1.0199743	1.7979277	140.15088
457	6	4	-0.18040072	-1.8521894	-0.21916547	140.14438
458	6	5	0.10198711	-1.9150546	-0.041611749	139.04824
459	6	5	0.10198711	-1.4121622	-1.2319134	140.28275
460	6	7	0.0618634	-4.3978144	-0.18474933	138.88906
461	6	7	0.0618634	-3.907562	-1.8310817	139.40132
462	6	6	0.31456875	-6.3847705	-0.43066811	140.10532
463	7	8	-0.48661683	2.6585086	-0.27399817	138.04218
464	7	4	0.090518006	4.0587981	-0.20129073	138.04423
465	7	4	-0.072933606	4.5349787	1.2465727	138.27649
466	7	5	0.08664573	4.1546	1.5640841	139.27323
467	7	4	-0.16436989	6.0844018	1.3221299	138.33595
468	7	5	0.096141659	6.5198124	0.36002075	138.6826
469	7	5	0.096141659	6.3850069	2.0924107	139.08027
470	7	4	-0.16393908	6.6947007	1.6964929	136.97866
471	7	5	0.096763879	7.8033719	1.6643538	137.05456
472	7	5	0.096763879	6.4049794	0.92001667	136.23682
473	7	4	-0.072129406	6.2038672	3.085351	136.48057
474	7	4	0.01782173	7.2087472	4.1997343	136.82109
475	7	8	-0.14496813	8.4088822	3.993923	136.12692
476	7	7	0.097481907	7.4031726	4.2118793	137.91779
477	7	7	0.097481907	6.7833213	5.185028	136.52479
478	7	5	0.089652189	6.1292431	3.033482	135.37058
479	7	4	-0.16393905	4.7991091	3.4494619	137.0256
480	7	5	0.096763887	4.2967483	4.1452521	136.31906
481	7	5	0.096763887	4.8810591	3.9699198	138.00682
482	7	4	-0.1643699	3.9326317	2.2006356	137.21152
483	7	5	0.096141659	3.8427823	1.6874189	136.22782
484	7	5	0.096141659	2.9098784	2.5061871	137.52391
485	7	7	0.097406596	4.4349687	-0.56893521	137.06489
486	7	7	0.097406596	4.4679293	-0.87288633	138.83359
487	4	1	0.5409221	-6.8414714	-2.1850232	141.77228
488	4	2	-0.69468475	-7.0247644	-1.8416962	142.97002
489	4	3	-0.49696553	-7.9184043	-2.6963484	140.98231
490	4	4	0.022567757	-9.2713878	-2.8261558	141.52591
491	4	4	-0.078808076	-10.236136	-3.4742197	140.50705
492	4	5	0.079108172	-10.202301	-2.8610399	139.57869
493	4	4	-0.17324806	-9.7800642	-4.91566	140.15087
494	4	5	0.096574873	-9.0133012	-4.8773936	139.34706
495	4	5	0.096574873	-9.3148722	-5.411523	141.03151
496	4	4	-0.13349143	-10.951215	-5.7803681	139.67638
497	4	5	0.086288706	-11.403838	-5.3089179	138.77517
498	4	5	0.086288706	-10.57709	-6.7832643	139.37655
499	4	4	-0.16896828	-12.025908	-5.9379524	140.77115
500	4	5	0.096941233	-13.006657	-6.0885849	140.26714
501	4	5	0.096941233	-11.815727	-6.8585879	141.35884
502	4	4	-0.055058159	-12.095528	-4.7344124	141.74658
503	4	4	0.16814258	-13.494281	-4.6331221	142.37999
504	4	3	-0.63235808	-13.497353	-3.6375894	143.44889
505	4	9	0.5984888	-13.784845	-3.93976	144.65104
506	4	2	-0.47908614	-14.064255	-4.2334644	145.82075
507	4	7	0.06061481	-14.239797	-4.3355083	141.61123
508	4	7	0.06061481	-13.794034	-5.6315367	142.77514
509	4	5	0.08257676	-11.365076	-4.912495	142.56832
510	4	4	-0.17610983	-11.700799	-3.4287752	141.02658
511	4	5	0.10237521	-11.849527	-2.5543488	141.69824
512	4	5	0.10237521	-12.385329	-3.2785031	140.16251
513	4	7	0.0618634	-9.6386999	-1.8121279	141.79385
514	4	7	0.0618634	-9.2417754	-3.4387133	142.454
515	4	6	0.31456875	-7.7148479	-2.9538971	139.9908
516	5	8	-0.14496811	9.0153275	4.7306017	136.40033
517	5	4	0.017821711	10.124855	4.6770903	135.54328
518	5	4	-0.072129398	11.043146	3.4930575	135.90546
519	5	5	0.089652203	10.445849	2.561137	135.78386
520	5	4	-0.16315307	12.241875	3.3962116	134.92419
521	5	5	0.096763887	11.982976	3.8253781	133.93217
522	5	5	0.096763887	12.486261	2.3247468	134.75014
523	5	4	-0.15609337	13.492384	4.0957072	135.47189
524	5	5	0.096763879	14.295865	4.0636425	134.70379
525	5	5	0.096763879	13.251494	5.1696155	135.63267
526	5	4	-0.11355174	13.969415	3.4736791	136.81403
527	5	4	0.079940901	15.095087	2.44705	136.59651
528	5	10	-0.67217863	16.236693	3.0835371	136.09266
529	5	11	0.38023456	16.913724	2.3705377	135.95892
530	5	7	0.086239651	14.755812	1.6590157	135.88639
531	5	7	0.086239651	15.347662	1.9641959	137.56807