Title

115 atoms
114 bonds
217 angles
392 dihedrals
15 impropers

9 atom types
12 bond types
9 angle types
39 dihedral types
3 improper types
-4.103000164 95.89699984 xlo xhi
-1.546000004 98.454 ylo yhi
-3.47300005 96.52699995 zlo zhi
0.0 0.0 0.0 xy xz yz

Masses

1	14.00672
2	12.01078
3	1.007947
4	1.007947
5	1.007947
6	12.01078
7	15.99943
8	15.99943
9	1.007947


Pair Coeffs

1	0.16769152	3.206876
2	0.10884061	3.3795318
3	0.014090815	1.1034277
4	0.016409246	2.5832257
5	0.015779483	2.6445434
6	0.086879315	3.4806469
7	0.2102061	3.0398122
8	0.20947353	2.99716
9	1.2326e-05	0.53453923

Bond Coeffs

1 harmonic	366.34047229585	1.464762957261
2 harmonic	505.144496193	1.019481865027
3 harmonic	422.7150220147	1.421786517481
4 harmonic	264.62148576755	1.52190126495
5 harmonic	370.04670688625	1.093899492634
6 harmonic	352.0565580496	1.450098586273
7 harmonic	492.76746816345	1.381897776683
8 harmonic	582.698766451	1.225198386222
9 harmonic	329.44145381095	1.523435958334
10 harmonic	279.1350963404	1.454628925034
11 harmonic	385.7604595587	1.369745182308
12 harmonic	543.5267831885	0.9716763312559


Angle Coeffs

1 harmonic	53.20531626545	116.5475862634
2 harmonic	49.015990027215	114.8414599994
3 harmonic	94.53012429075	110.92021963
4 harmonic	63.44422595415	115.5071327674
5 harmonic	55.42182150775	117.3465570514
6 harmonic	57.8982893754	126.8062420451
7 harmonic	48.776492647595	115.6030999533
8 harmonic	65.09061609600001	110.3538806181
9 harmonic	201.41175231035	127.4691416191


Dihedral Coeffs

1 fourier 1	0.1155372516788	3	0
2 fourier 1	0.2036670163956	3	0
3 fourier 1	0.6761465733405	3	0
4 fourier 1	1.653011589151	2	0
5 fourier 1	1.713184811193	1	0
6 fourier 1	0.774151252041	3	0
7 fourier 1	1.087509576657	2	0
8 fourier 1	1.518874939494	1	0
9 fourier 1	0.09223874044423	3	0
10 fourier 1	0.3159935921949	2	180
11 fourier 1	0.3247796806857	1	180
12 fourier 1	0.1040663847541	3	0
13 fourier 1	0.182238503271	2	0
14 fourier 1	0.02972342374561	3	0
15 fourier 1	-0.1488678166443	4	180
16 fourier 1	-0.1230328948768	3	180
17 fourier 1	0.2939295466901	2	0
18 fourier 1	-0.3024127022865	1	0
19 fourier 1	3.101948770557	2	180
20 fourier 1	-0.4252153282372	1	0
21 fourier 1	1.809047390003	2	180
22 fourier 1	-0.04816277792592	1	0
23 fourier 1	-0.04561822763521	4	0
24 fourier 1	0.1536091026885	2	0
25 fourier 1	0.02664938770063	3	0
26 fourier 1	2.348375642009	2	180
27 fourier 1	1.256156174911	1	0
28 fourier 1	0.1911926717192	3	0
29 fourier 1	0.3917343745784	3	0
30 fourier 1	0.9467782973395	2	0
31 fourier 1	0.2726597146827	1	0
32 fourier 1	-0.3703352413219	2	0
33 fourier 1	0.4541676554336	1	0
34 fourier 1	0.1489710476446	2	0
35 fourier 1	0.02960027280666	3	180
36 fourier 1	0.9974165607242	2	180
37 fourier 1	2.687457892086	2	180
38 fourier 1	2.772607909663	2	180
39 fourier 1	0.09692684957115	1	0


Improper Coeffs

1 0.3333333333333333	-1	2
2 0.3666666666666667	-1	2
3 3.5	-1	2


Atoms

1	1	1	-0.63876998	-3.73	0.76800001	-0.67199999
2	1	2	0.030637	-3.329	-0.105	0.43099999
3	1	2	-0.156077	-1.973	-0.787	0.18000001
4	1	2	-0.144658	-0.80000001	0.204	0.20299999
5	1	2	-0.14467999	0.542	-0.52999997	0.092
6	1	2	-0.14607801	1.7130001	0.45899999	0.102
7	1	2	0.015006	3.0539999	-0.27200001	-0.0060000001
8	1	1	-0.49108201	4.152	0.68900001	-0.017000001
9	1	3	0.31691301	4.223	1.115	0.93599999
10	1	4	0.047361001	3.0769999	-0.861	-0.949
11	1	4	0.047361001	3.1760001	-0.97299999	0.85100001
12	1	5	0.082171001	1.692	1.0470001	1.0470001
13	1	5	0.082171001	1.613	1.163	-0.75300002
14	1	5	0.081137002	0.56300002	-1.1160001	-0.85299999
15	1	5	0.081137002	0.648	-1.234	0.94700003
16	1	5	0.082622997	-0.89300001	0.912	-0.64899999
17	1	5	0.082622997	-0.824	0.78399998	1.152
18	1	5	0.087687999	-1.819	-1.546	0.97799999
19	1	5	0.087687999	-1.995	-1.323	-0.79400003
20	1	4	0.088146999	-3.2950001	0.479	1.376
21	1	4	0.088146999	-4.1030002	-0.89200002	0.55500001
22	1	3	0.35957801	-3.1029999	1.604	-0.69499999
23	1	6	0.72516698	5.0549998	0.147	-0.17399999
24	1	7	-0.74527699	5.368	-0.189	-1.3049999
25	1	2	-0.18189199	5.9250002	-0.211	0.99599999
26	1	2	-0.121351	7.3000002	0.46700001	0.921
27	1	2	-0.137044	7.204	1.99	1.089
28	1	2	-0.1416	8.5950003	2.6359999	1.057
29	1	2	-0.141699	8.5	4.158	1.22
30	1	2	-0.141699	9.8950005	4.8000002	1.2
31	1	2	-0.1416	9.8380003	6.336	1.23
32	1	2	-0.138918	9.3500004	6.8829999	2.5829999
33	1	2	-0.097259998	9.5439997	8.4029999	2.7090001
34	1	2	-0.25772399	8.6120005	9.1949997	1.781
35	1	6	0.51694602	8.7259998	10.667	2.0409999
36	1	7	-0.68782502	9.7700005	11.257	1.811
37	1	5	0.11354	8.8669996	9.0019999	0.71799999
38	1	5	0.11354	7.559	8.8830004	1.954
39	1	5	0.076819003	9.3299999	8.6899996	3.7620001
40	1	5	0.076819003	10.604	8.665	2.497
41	1	5	0.078518003	9.9250002	6.3959999	3.4000001
42	1	5	0.078518003	8.2770004	6.638	2.7320001
43	1	5	0.080392003	10.863	6.7189999	1.033
44	1	5	0.080392003	9.1789999	6.6950002	0.41100001
45	1	5	0.080392003	10.496	4.4289999	2.059
46	1	5	0.080392003	10.417	4.4959998	0.26699999
47	1	5	0.080392003	7.9980001	4.3839998	2.1849999
48	1	5	0.080392003	7.8860002	4.5780001	0.39300001
49	1	5	0.080392003	9.2139997	2.2160001	1.88
50	1	5	0.080392003	9.0869999	2.3989999	0.088
51	1	5	0.078518003	6.7129998	2.223	2.059
52	1	5	0.078518003	6.586	2.4170001	0.26899999
53	1	5	0.084591001	7.9359999	0.052999999	1.734
54	1	5	0.084591001	7.7880001	0.221	-0.048
55	1	5	0.116501	5.414	0.079000004	1.939
56	1	5	0.116501	6.0630002	-1.314	1.012
57	1	1	-0.63876998	-3.625	0.25600001	-1.5779999
58	1	2	0.030637	-2.984	1.1289999	-2.5599999
59	1	2	-0.156077	-1.72	1.811	-2.007
60	1	2	-0.14473499	-0.574	0.81999999	-1.763
61	1	2	-0.143373	0.708	1.554	-1.349
62	1	2	-0.15755901	1.851	0.565	-1.0930001
63	1	2	0.027682001	3.132	1.296	-0.68199998
64	1	1	-0.97581899	4.198	0.33500001	-0.421
65	1	3	0.37936601	5.027	0.86699998	-0.068999998
66	1	3	0.37936601	4.4850001	-0.090999998	-1.3329999
67	1	4	0.076180004	2.9400001	1.885	0.242
68	1	4	0.076180004	3.4460001	1.997	-1.489
69	1	5	0.088555001	2.046	-0.023	-2.017
70	1	5	0.088555001	1.559	-0.139	-0.28200001
71	1	5	0.082622997	0.51300001	2.1400001	-0.42399999
72	1	5	0.082622997	1.006	2.2579999	-2.1570001
73	1	5	0.082622997	-0.85799998	0.112	-0.954
74	1	5	0.082622997	-0.38100001	0.23999999	-2.6919999
75	1	5	0.087687999	-1.3890001	2.5699999	-2.75
76	1	5	0.087687999	-1.964	2.3469999	-1.064
77	1	4	0.088146999	-2.7349999	0.54500002	-3.473
78	1	4	0.088146999	-3.71	1.916	-2.858
79	1	3	0.35957801	-3.0209999	-0.57999998	-1.4119999
80	1	6	0.51694602	7.8720002	11.218	2.4219999
81	1	7	-0.68782502	7.1059999	10.673	3.201
82	1	2	-0.25772399	7.6220002	12.623	1.957
83	1	2	-0.097259998	7.9650002	13.664	3.033
84	1	2	-0.138918	6.928	13.709	4.165
85	1	2	-0.1416	7.243	14.838	5.1539998
86	1	2	-0.141699	6.2150002	14.879	6.29
87	1	2	-0.141699	6.5300002	16.007999	7.2779999
88	1	2	-0.1416	5.5009999	16.049	8.4139996
89	1	2	-0.13626	5.8169999	17.179001	9.4020004
90	1	2	-0.113053	4.7880001	17.219	10.539
91	1	2	-0.218771	5.1030002	18.347	11.525
92	1	6	0.82375401	4.0960002	18.372999	12.631
93	1	7	-0.55682403	3.05	19.066	12.516
94	1	8	-0.66555202	4.2940001	17.594999	13.767
95	1	9	0.394032	3.6140001	17.587999	14.517
96	1	5	0.117802	6.1149998	18.195999	11.961
97	1	5	0.117802	5.0960002	19.326	10.996
98	1	5	0.085608996	3.773	17.378	10.111
99	1	5	0.085608996	4.796	16.246	11.078
100	1	5	0.078518003	5.8080001	18.152	8.8629999
101	1	5	0.078518003	6.8309999	17.02	9.8299999
102	1	5	0.080392003	4.487	16.207001	7.9860001
103	1	5	0.080392003	5.5100002	15.076	8.9530001
104	1	5	0.080392003	6.5209999	16.982	6.7389998
105	1	5	0.080392003	7.5450001	15.85	7.7059999
106	1	5	0.080392003	6.223	13.906	6.829
107	1	5	0.080392003	5.1999998	15.037	5.862
108	1	5	0.080392003	7.2350001	15.812	4.6160002
109	1	5	0.080392003	8.2580004	14.679	5.5819998
110	1	5	0.078518003	6.9289999	12.742	4.7119999
111	1	5	0.078518003	5.9159999	13.872	3.733
112	1	5	0.076819003	8.9750004	13.454	3.451
113	1	5	0.076819003	8.0039997	14.662	2.5439999
114	1	5	0.11354	8.2679996	12.812	1.073
115	1	5	0.11354	6.566	12.732	1.627

Bonds

1	1	1	2
2	2	1	22
3	3	1	57
4	4	2	3
5	5	2	20
6	5	2	21
7	4	3	4
8	5	3	18
9	5	3	19
10	4	4	5
11	5	4	16
12	5	4	17
13	4	5	6
14	5	5	14
15	5	5	15
16	4	6	7
17	5	6	12
18	5	6	13
19	6	7	8
20	5	7	10
21	5	7	11
22	2	8	9
23	7	8	23
24	8	23	24
25	9	23	25
26	4	25	26
27	5	25	55
28	5	25	56
29	4	26	27
30	5	26	53
31	5	26	54
32	4	27	28
33	5	27	51
34	5	27	52
35	4	28	29
36	5	28	49
37	5	28	50
38	4	29	30
39	5	29	47
40	5	29	48
41	4	30	31
42	5	30	45
43	5	30	46
44	4	31	32
45	5	31	43
46	5	31	44
47	4	32	33
48	5	32	41
49	5	32	42
50	4	33	34
51	5	33	39
52	5	33	40
53	9	34	35
54	5	34	37
55	5	34	38
56	8	35	36
57	10	35	80
58	1	57	58
59	2	57	79
60	4	58	59
61	5	58	77
62	5	58	78
63	4	59	60
64	5	59	75
65	5	59	76
66	4	60	61
67	5	60	73
68	5	60	74
69	4	61	62
70	5	61	71
71	5	61	72
72	4	62	63
73	5	62	69
74	5	62	70
75	1	63	64
76	5	63	67
77	5	63	68
78	2	64	65
79	2	64	66
80	8	80	81
81	9	80	82
82	4	82	83
83	5	82	114
84	5	82	115
85	4	83	84
86	5	83	112
87	5	83	113
88	4	84	85
89	5	84	110
90	5	84	111
91	4	85	86
92	5	85	108
93	5	85	109
94	4	86	87
95	5	86	106
96	5	86	107
97	4	87	88
98	5	87	104
99	5	87	105
100	4	88	89
101	5	88	102
102	5	88	103
103	4	89	90
104	5	89	100
105	5	89	101
106	4	90	91
107	5	90	98
108	5	90	99
109	9	91	92
110	5	91	96
111	5	91	97
112	8	92	93
113	11	92	94
114	12	94	95

Angles

1	1	60	61	72
2	1	62	63	67
3	1	33	34	37
4	1	23	25	55
5	1	7	6	13
6	1	61	60	74
7	1	32	31	44
8	1	29	30	31
9	3	2	1	22
10	1	83	82	114
11	1	27	26	54
12	1	84	83	113
13	1	6	7	8
14	1	61	62	70
15	1	32	33	40
16	1	89	88	103
17	7	69	62	70
18	3	58	57	79
19	6	36	35	80
20	1	31	32	41
21	7	75	59	76
22	1	4	5	14
23	6	91	92	94
24	2	1	57	58
25	1	62	63	64
26	1	85	84	111
27	7	49	28	50
28	1	83	82	115
29	7	14	5	15
30	1	2	3	4
31	1	6	7	10
32	1	90	89	101
33	1	6	5	15
34	1	85	86	107
35	7	39	33	40
36	1	1	2	21
37	1	59	58	77
38	1	88	89	90
39	7	96	91	97
40	1	31	32	33
41	1	25	26	53
42	1	5	6	12
43	7	102	88	103
44	7	53	26	54
45	4	9	8	23
46	1	28	27	51
47	1	83	84	85
48	1	33	32	41
49	7	10	7	11
50	1	84	85	86
51	1	87	88	89
52	1	61	62	63
53	1	28	29	47
54	7	100	89	101
55	7	106	86	107
56	7	12	6	13
57	1	82	83	84
58	1	4	3	18
59	5	7	8	23
60	1	29	28	49
61	1	62	63	68
62	1	33	34	38
63	1	90	91	92
64	1	5	6	7
65	1	28	27	52
66	6	24	23	25
67	1	60	61	62
68	1	23	25	56
69	1	91	90	98
70	1	33	32	42
71	6	35	80	81
72	1	28	29	48
73	7	51	27	52
74	1	4	5	6
75	3	22	1	57
76	1	5	4	16
77	1	87	86	106
78	1	4	3	19
79	6	34	35	36
80	7	114	82	115
81	1	29	28	50
82	7	77	58	78
83	7	73	60	74
84	1	82	83	112
85	1	92	91	96
86	1	8	7	10
87	1	2	3	18
88	1	89	90	98
89	7	98	90	99
90	7	110	84	111
91	1	6	7	11
92	1	87	88	102
93	1	31	32	42
94	1	4	5	15
95	1	86	87	88
96	1	62	61	71
97	7	104	87	105
98	1	33	34	35
99	7	18	3	19
100	1	86	87	104
101	1	88	87	104
102	8	92	94	95
103	1	5	4	17
104	1	64	63	67
105	1	83	84	110
106	1	35	34	37
107	7	43	31	44
108	1	90	91	96
109	1	59	58	78
110	1	80	82	114
111	1	85	86	87
112	1	88	89	100
113	1	89	90	99
114	1	63	62	69
115	1	34	33	39
116	6	34	35	80
117	1	62	61	72
118	1	25	26	54
119	1	5	6	13
120	1	58	59	75
121	1	29	30	45
122	1	59	60	61
123	1	60	61	71
124	1	60	59	75
125	1	31	30	45
126	3	63	64	65
127	1	26	27	51
128	7	47	29	48
129	1	64	63	68
130	1	26	25	55
131	1	35	34	38
132	1	30	29	47
133	7	41	32	42
134	1	32	33	34
135	1	90	91	97
136	7	16	4	17
137	1	58	59	60
138	1	57	58	77
139	1	63	62	70
140	1	84	83	112
141	1	27	26	53
142	1	34	33	40
143	1	59	60	73
144	1	89	90	91
145	1	30	31	43
146	1	1	2	3
147	1	58	59	76
148	1	29	30	46
149	1	32	33	39
150	1	89	88	102
151	1	30	31	32
152	1	60	59	76
153	1	31	30	46
154	3	63	64	66
155	1	84	85	108
156	1	27	28	49
157	1	91	90	99
158	1	26	27	52
159	3	1	57	79
160	1	26	25	56
161	6	35	80	82
162	6	91	92	93
163	1	27	28	29
164	7	20	2	21
165	1	30	29	48
166	1	8	7	11
167	9	93	92	94
168	1	3	2	20
169	1	23	25	26
170	6	81	80	82
171	1	85	84	110
172	1	57	58	78
173	7	45	30	46
174	1	59	60	74
175	1	30	31	44
176	1	87	86	107
177	1	86	85	108
178	7	55	25	56
179	1	90	89	100
180	1	6	5	14
181	1	3	4	16
182	1	82	83	113
183	1	85	86	106
184	1	92	91	97
185	1	2	3	19
186	6	8	23	24
187	1	1	2	20
188	1	3	4	5
189	1	26	27	28
190	1	27	28	50
191	1	84	85	109
192	7	108	85	109
193	1	87	88	103
194	1	25	26	27
195	7	67	63	68
196	1	80	82	83
197	1	3	2	21
198	1	86	87	105
199	7	37	34	38
200	1	28	29	30
201	1	88	87	105
202	1	86	85	109
203	1	83	84	111
204	1	57	58	59
205	1	3	4	17
206	1	7	6	12
207	1	61	60	73
208	1	32	31	43
209	6	8	23	25
210	1	80	82	115
211	7	112	83	113
212	1	88	89	101
213	7	71	61	72
214	2	2	1	57
215	4	7	8	9
216	3	65	64	66
217	1	61	62	69

Dihedrals

1	12	89	88	87	104
2	28	40	33	32	42
3	28	14	5	4	17
4	12	90	89	88	103
5	28	47	29	28	49
6	12	26	27	28	50
7	12	60	59	58	78
8	1	64	63	62	70
9	28	41	32	31	44
10	12	7	6	5	15
11	9	86	87	88	89
11	10	86	87	88	89
11	11	86	87	88	89
12	21	9	8	23	25
12	22	9	8	23	25
13	1	1	2	3	18
14	12	61	62	63	67
15	28	108	85	84	110
16	15	6	7	8	23
16	16	6	7	8	23
16	17	6	7	8	23
16	18	6	7	8	23
17	12	63	62	61	72
18	28	102	88	87	104
19	12	87	88	89	100
20	9	58	59	60	61
20	10	58	59	60	61
20	11	58	59	60	61
21	28	17	4	3	18
22	12	84	85	86	106
23	2	1	57	58	77
24	12	85	86	87	105
25	2	20	2	1	22
26	12	86	87	88	102
27	1	57	58	59	76
28	12	27	26	25	56
29	28	49	28	27	52
30	28	37	34	33	39
31	12	58	59	60	74
32	28	43	31	30	46
33	12	88	89	90	99
34	9	2	3	4	5
34	10	2	3	4	5
34	11	2	3	4	5
35	28	75	59	58	77
36	12	32	33	34	37
37	12	31	30	29	47
38	12	34	33	32	42
39	28	107	86	85	108
40	1	57	58	59	60
41	28	101	89	88	102
42	12	30	29	28	49
43	28	46	30	29	47
44	28	69	62	61	71
45	28	40	33	32	41
46	28	14	5	4	16
47	28	103	88	87	105
48	12	90	89	88	102
49	28	72	61	60	74
50	33	93	92	91	97
50	34	93	92	91	97
50	35	93	92	91	97
51	25	38	34	35	80
52	1	64	63	62	69
53	28	97	91	90	99
54	12	29	30	31	44
55	28	41	32	31	43
56	28	19	3	2	20
57	9	26	27	28	29
57	10	26	27	28	29
57	11	26	27	28	29
58	12	7	6	5	14
59	2	66	64	63	68
60	26	9	8	23	24
60	27	9	8	23	24
61	9	82	83	84	85
61	10	82	83	84	85
61	11	82	83	84	85
62	25	35	80	82	115
63	2	3	2	1	22
64	12	29	28	27	51
65	28	53	26	25	55
66	12	63	62	61	71
67	12	4	3	2	20
68	1	89	90	91	92
69	12	33	32	31	43
70	9	87	88	89	90
70	10	87	88	89	90
70	11	87	88	89	90
71	28	109	85	84	111
72	1	80	82	83	112
73	12	5	4	3	19
74	28	76	59	58	78
75	12	85	86	87	104
76	28	12	6	5	15
77	12	27	28	29	48
78	12	84	83	82	115
79	2	78	58	57	79
80	12	27	26	25	55
81	28	105	87	86	107
82	12	58	59	60	73
83	33	81	80	82	115
83	34	81	80	82	115
83	35	81	80	82	115
84	12	28	29	30	45
85	21	7	8	23	25
85	22	7	8	23	25
86	28	43	31	30	45
87	36	36	35	80	82
88	12	61	60	59	76
89	28	111	84	83	113
90	12	3	4	5	14
91	12	34	33	32	41
92	2	65	64	63	68
93	37	91	92	94	95
94	1	23	25	26	54
95	12	83	84	85	108
96	13	9	8	7	11
96	14	9	8	7	11
97	12	32	31	30	46
98	28	112	83	82	115
99	12	59	60	61	72
100	28	106	86	85	109
101	28	72	61	60	73
102	33	93	92	91	96
102	34	93	92	91	96
102	35	93	92	91	96
103	12	4	5	6	12
104	28	71	61	60	73
105	28	13	6	5	15
106	28	97	91	90	98
107	12	29	30	31	43
108	13	11	7	8	23
108	14	11	7	8	23
109	2	66	64	63	67
110	28	15	5	4	17
111	12	86	85	84	110
112	36	34	35	80	82
113	9	30	31	32	33
113	10	30	31	32	33
113	11	30	31	32	33
114	1	23	25	26	27
115	25	35	80	82	114
116	28	39	33	32	42
117	28	42	32	31	44
118	28	73	60	59	76
119	28	10	7	6	13
120	33	36	35	34	38
120	34	36	35	34	38
120	35	36	35	34	38
121	2	1	57	58	59
122	28	67	63	62	70
123	9	28	29	30	31
123	10	28	29	30	31
123	11	28	29	30	31
124	28	18	3	2	21
125	12	5	4	3	18
126	12	31	32	33	39
127	28	76	59	58	77
128	28	70	62	61	71
129	28	54	26	25	55
130	6	22	1	57	58
130	7	22	1	57	58
130	8	22	1	57	58
131	25	37	34	35	80
132	12	6	5	4	17
133	28	50	28	27	52
134	28	96	91	90	98
135	12	60	61	62	70
136	23	8	23	25	26
136	24	8	23	25	26
137	25	90	91	92	94
138	12	61	60	59	75
139	1	32	33	34	35
140	1	80	82	83	84
141	28	111	84	83	112
142	28	110	84	83	112
143	28	44	31	30	46
144	28	11	7	6	13
145	2	65	64	63	67
146	1	35	34	33	39
147	28	38	34	33	40
148	28	104	87	86	107
149	12	32	31	30	45
150	12	85	84	83	113
151	1	1	2	3	4
152	9	60	61	62	63
152	10	60	61	62	63
152	11	60	61	62	63
153	12	5	6	7	11
154	9	59	60	61	62
154	10	59	60	61	62
154	11	59	60	61	62
155	28	98	90	89	101
156	12	26	27	28	49
157	28	13	6	5	14
158	28	52	27	26	54
159	12	60	59	58	77
160	12	28	27	26	54
161	25	94	92	91	97
162	13	6	7	8	9
162	14	6	7	8	9
163	28	42	32	31	43
164	28	10	7	6	12
165	33	36	35	34	37
165	34	36	35	34	37
165	35	36	35	34	37
166	28	67	63	62	69
167	12	89	88	87	105
168	38	93	92	94	95
168	39	93	92	94	95
169	2	20	2	1	57
170	28	47	29	28	50
171	1	8	7	6	13
172	12	87	86	85	109
173	1	57	58	59	75
174	12	61	62	63	68
175	25	8	23	25	56
176	28	16	4	3	19
177	12	6	5	4	16
178	28	50	28	27	51
179	28	49	28	27	51
180	12	84	85	86	107
181	2	1	57	58	78
182	32	90	91	92	93
183	12	88	89	90	98
184	9	84	85	86	87
184	10	84	85	86	87
184	11	84	85	86	87
185	12	82	83	84	111
186	2	59	58	57	79
187	28	38	34	33	39
188	12	91	90	89	101
189	9	27	28	29	30
189	10	27	28	29	30
189	11	27	28	29	30
190	28	104	87	86	106
191	9	83	84	85	86
191	10	83	84	85	86
191	11	83	84	85	86
192	28	37	34	33	40
193	1	5	6	7	8
194	25	33	34	35	80
195	12	2	3	4	17
196	9	88	89	90	91
196	10	88	89	90	91
196	11	88	89	90	91
197	28	75	59	58	78
198	28	103	88	87	104
199	12	32	33	34	38
200	28	51	27	26	54
201	2	77	58	57	79
202	9	29	30	31	32
202	10	29	30	31	32
202	11	29	30	31	32
203	28	107	86	85	109
204	12	28	27	26	53
205	28	45	30	29	48
206	12	30	31	32	42
207	25	94	92	91	96
208	28	101	89	88	103
209	2	3	2	1	57
210	9	25	26	27	28
210	10	25	26	27	28
210	11	25	26	27	28
211	32	24	23	25	26
212	25	35	80	82	83
213	28	68	63	62	70
214	28	109	85	84	110
215	28	12	6	5	14
216	1	8	7	6	12
217	12	87	86	85	108
218	28	19	3	2	21
219	12	27	28	29	47
220	12	84	83	82	114
221	12	25	26	27	52
222	25	8	23	25	55
223	28	16	4	3	18
224	12	29	28	27	52
225	28	53	26	25	56
226	13	9	8	7	10
226	14	9	8	7	10
227	6	2	1	57	79
227	7	2	1	57	79
227	8	2	1	57	79
228	28	105	87	86	106
229	28	74	60	59	76
230	28	99	90	89	101
231	12	4	3	2	21
232	12	33	32	31	44
233	33	81	80	82	114
233	34	81	80	82	114
233	35	81	80	82	114
234	19	7	8	23	24
234	20	7	8	23	24
235	1	80	82	83	113
236	28	100	89	88	103
237	36	36	35	80	81
238	32	81	80	82	83
239	12	82	83	84	110
240	1	23	25	26	53
241	2	62	63	64	66
242	12	88	87	86	107
243	12	91	90	89	100
244	28	113	83	82	115
245	2	21	2	1	57
246	12	89	90	91	97
247	28	48	29	28	50
248	12	28	29	30	46
249	28	112	83	82	114
250	12	2	3	4	16
251	12	59	60	61	71
252	9	4	5	6	7
252	10	4	5	6	7
252	11	4	5	6	7
253	28	106	86	85	108
254	9	31	32	33	34
254	10	31	32	33	34
254	11	31	32	33	34
255	12	3	4	5	15
256	28	51	27	26	53
257	28	15	5	4	16
258	28	45	30	29	47
259	12	30	31	32	41
260	12	62	61	60	74
261	36	34	35	80	81
262	12	83	84	85	109
263	3	2	1	57	58
263	4	2	1	57	58
263	5	2	1	57	58
264	33	24	23	25	56
264	34	24	23	25	56
264	35	24	23	25	56
265	1	61	62	63	64
266	28	39	33	32	41
267	28	73	60	59	75
268	1	92	91	90	99
269	28	68	63	62	69
270	32	33	34	35	36
271	28	18	3	2	20
272	9	3	4	5	6
272	10	3	4	5	6
272	11	3	4	5	6
273	12	4	5	6	13
274	28	71	61	60	74
275	12	86	85	84	111
276	12	25	26	27	51
277	1	1	2	3	19
278	28	108	85	84	111
279	12	60	61	62	69
280	28	74	60	59	75
281	28	102	88	87	105
282	12	87	88	89	101
283	28	99	90	89	100
284	28	17	4	3	19
285	28	100	89	88	102
286	12	5	6	7	10
287	12	31	32	33	40
288	28	44	31	30	45
289	28	11	7	6	12
290	12	86	87	88	103
291	28	70	62	61	72
292	28	54	26	25	56
293	2	62	63	64	65
294	12	88	87	86	106
295	28	113	83	82	114
296	12	85	84	83	112
297	28	96	91	90	99
298	13	10	7	8	23
298	14	10	7	8	23
299	28	48	29	28	49
300	12	89	90	91	96
301	28	110	84	83	113
302	28	98	90	89	100
303	12	31	30	29	48
304	9	85	86	87	88
304	10	85	86	87	88
304	11	85	86	87	88
305	28	52	27	26	53
306	1	35	34	33	40
307	29	22	1	57	79
307	30	22	1	57	79
307	31	22	1	57	79
308	12	62	61	60	73
309	33	24	23	25	55
309	34	24	23	25	55
309	35	24	23	25	55
310	12	30	29	28	50
311	2	21	2	1	22
312	28	46	30	29	48
313	28	69	62	61	72
314	1	92	91	90	98

Impropers

29	2	23	24	25	8
114	2	23	25	8	24
139	2	23	8	24	25
174	2	80	81	82	35
208	1	8	23	7	9
319	3	92	91	93	94
338	2	80	82	35	81
359	1	8	9	23	7
376	2	80	35	81	82
424	2	35	34	36	80
556	1	8	7	9	23
612	2	35	36	80	34
634	3	92	94	91	93
649	3	92	93	94	91
798	2	35	80	34	36
