Title

207 atoms
222 bonds
377 angles
599 dihedrals
276 impropers

11 atom types
15 bond types
8 angle types
22 dihedral types
3 improper types
-19.53199959 80.46800041 xlo xhi
-5.046000004 94.954 ylo yhi
-24.47699928 75.52300072 zlo zhi
0.0 0.0 0.0 xy xz yz

Masses

1	14.00672
2	12.01078
3	1.007947
4	15.99943
5	12.01078
6	1.007947
7	18.998403
8	1.007947
9	15.99943
10	15.99943
11	1.007947


Pair Coeffs

1	0.16769152	3.206876
2	0.086879315	3.4806469
3	0.015611343	2.5725815
4	0.16846514	3.0251065
5	0.10884061	3.3795318
6	0.014090815	1.1034277
7	0.061	3.1181455
8	0.015779483	2.6445434
9	0.2102061	3.0398122
10	0.20947353	2.99716
11	1.2326e-05	0.53453923

Bond Coeffs

1 harmonic	390.03554688505	1.390160554689
2 harmonic	505.144496193	1.019481865027
3 harmonic	422.7150220147	1.421786517481
4 harmonic	360.7852444772	1.387193227181
5 harmonic	397.2545789619	1.085358495916
6 harmonic	279.1350963404	1.454628925034
7 harmonic	425.69104206635	1.362945806494
8 harmonic	289.73813263395	1.498646816465
9 harmonic	264.62148576755	1.52190126495
10 harmonic	492.76746816345	1.381897776683
11 harmonic	340.45121009905	1.358690858053
12 harmonic	370.04670688625	1.093899492634
13 harmonic	582.698766451	1.225198386222
14 harmonic	385.7604595587	1.369745182308
15 harmonic	543.5267831885	0.9716763312559


Angle Coeffs

1 harmonic	57.8982893754	126.8062420451
2 harmonic	55.42182150775	117.3465570514
3 harmonic	63.44422595415	115.5071327674
4 harmonic	34.066775159195	129.1835929926
5 harmonic	65.09061609600001	110.3538806181
6 harmonic	53.20531626545	116.5475862634
7 harmonic	48.776492647595	115.6030999533
8 harmonic	201.41175231035	127.4691416191


Dihedral Coeffs

1 fourier 1	3.661930099076	2	180
2 fourier 1	1.193093382682	2	180
3 fourier 1	0.02021088501612	1	0
4 fourier 1	1.163235555439	2	180
5 fourier 1	1.532232714475	2	180
6 fourier 1	0.02664938770063	3	0
7 fourier 1	0.1155372516788	3	0
8 fourier 1	0.1040663847541	3	0
9 fourier 1	0.09223874044423	3	0
10 fourier 1	0.3159935921949	2	180
11 fourier 1	0.3247796806857	1	180
12 fourier 1	3.101948770557	2	180
13 fourier 1	-0.4252153282372	1	0
14 fourier 1	1.809047390003	2	180
15 fourier 1	-0.04816277792592	1	0
16 fourier 1	0.9974165607242	2	180
17 fourier 1	2.348375642009	2	180
18 fourier 1	1.256156174911	1	0
19 fourier 1	0.1911926717192	3	0
20 fourier 1	2.687457892086	2	180
21 fourier 1	2.772607909663	2	180
22 fourier 1	0.09692684957115	1	0


Improper Coeffs

1 0.3666666666666667	-1	2
2 0.3333333333333333	-1	2
3 3.5	-1	2


Atoms

1	1	1	-0.412494	14.317	0.495	-0.056000002
2	1	2	0.12542599	12.923	0.41	0.25799999
3	1	2	-0.40782401	12.207	1.527	0.48800001
4	1	3	0.220294	12.682	2.5009999	0.447
5	1	2	-0.115781	10.761	1.434	0.79000002
6	1	3	0.20281599	10.206	2.3499999	0.96799999
7	1	2	-0.12902901	10.143	0.237	0.81800002
8	1	2	-0.135234	8.6929998	0.148	1.094
9	1	2	-0.131063	7.8779998	-0.51300001	0.25099999
10	1	3	0.20611	8.2690001	-1.003	-0.625
11	1	2	-0.297162	6.421	-0.51300001	0.47499999
12	1	3	0.22292501	5.7909999	-1.021	-0.244
13	1	2	0.32788199	5.8920002	0.12800001	1.536
14	1	4	-0.273249	4.5079999	0.198	1.765
15	1	2	0.25766799	3.5179999	-0.156	0.83899999
16	1	2	-0.26884699	2.7720001	0.80500001	0.26899999
17	1	3	0.226559	2.961	1.845	0.49599999
18	1	2	-0.17621	1.6569999	0.44999999	-0.62599999
19	1	3	0.216739	1.054	1.252	-1.041
20	1	2	-0.188279	1.349	-0.84500003	-0.87900001
21	1	5	0.01526	0.077	-1.164	-1.6950001
22	1	2	-0.188279	-1.137	-0.59600002	-0.912
23	1	2	-0.17621	-2.2279999	-0.055	-1.507
24	1	3	0.216739	-2.313	0.028000001	-2.5780001
25	1	2	-0.26884699	-3.3440001	0.49700001	-0.70599997
26	1	3	0.226559	-4.1739998	0.97899997	-1.214
27	1	2	0.25766799	-3.3069999	0.433	0.634
28	1	4	-0.273249	-4.3099999	0.99199998	1.4349999
29	1	2	0.32788199	-5.677	1.028	1.118
30	1	2	-0.297162	-6.2979999	2.2160001	1.122
31	1	3	0.22292501	-5.7379999	3.122	1.316
32	1	2	-0.131063	-7.75	2.309	0.88099998
33	1	3	0.20611	-8.2119999	3.283	0.92400002
34	1	2	-0.135234	-8.4779997	1.2029999	0.65100002
35	1	2	-0.12902901	-9.9549999	1.273	0.52600002
36	1	2	-0.12977	-10.613	0.495	-0.354
37	1	3	0.20281599	-10.076	-0.15899999	-1.029
38	1	2	-0.37598801	-12.091	0.51800001	-0.41800001
39	1	3	0.216796	-12.599	-0.131	-1.1160001
40	1	2	0.197707	-12.791	1.306	0.40900001
41	1	1	-0.53268099	-14.219	1.313	0.37599999
42	1	6	0.31886399	-14.765	1.936	1.012
43	1	2	-0.37598801	-12.074	2.171	1.369
44	1	3	0.216796	-12.627	2.813	2.0409999
45	1	2	-0.12977	-10.738	2.161	1.4220001
46	1	3	0.20281599	-10.232	2.773	2.1570001
47	1	2	-0.058127001	-7.7940001	-0.113	0.62300003
48	1	3	0.205185	-8.3909998	-1.001	0.46200001
49	1	2	-0.32315001	-6.4720001	-0.22	0.87400001
50	1	5	0.76608998	-5.8189998	-1.5880001	0.94499999
51	1	7	-0.20938	-6.7529998	-2.586	1.1670001
52	1	7	-0.20938	-5.1599998	-1.854	-0.245
53	1	7	-0.20938	-4.9109998	-1.631	1.988
54	1	2	-0.26884699	-2.1619999	-0.222	1.298
55	1	3	0.226559	-2.151	-0.32300001	2.378
56	1	2	-0.17621	-1.1569999	-0.72799999	0.57700002
57	1	3	0.216739	-0.354	-1.247	1.089
58	1	5	-0.12925699	-0.133	-2.698	-1.844
59	1	8	0.110712	-0.29800001	-3.1689999	-0.85100001
60	1	8	0.110712	0.77399999	-3.1570001	-2.293
61	1	5	-0.129007	-1.324	-3.0539999	-2.7509999
62	1	8	0.113025	-1.279	-4.1409998	-2.9719999
63	1	8	0.113025	-2.2780001	-2.8800001	-2.2049999
64	1	5	-0.150567	-1.352	-2.2709999	-4.0760002
65	1	8	0.115732	-2.237	-1.607	-4.1030002
66	1	8	0.115732	-1.471	-2.9779999	-4.9250002
67	1	5	-0.129007	-0.090999998	-1.438	-4.3130002
68	1	8	0.113025	-0.227	-0.81300002	-5.223
69	1	8	0.113025	0.75599998	-2.131	-4.5139999
70	1	5	-0.12925699	0.27200001	-0.52399999	-3.1259999
71	1	8	0.110712	1.342	-0.26699999	-3.2909999
72	1	8	0.110712	-0.25099999	0.45300001	-3.217
73	1	2	-0.17621	2.214	-1.9069999	-0.264
74	1	3	0.216739	2.0250001	-2.9560001	-0.42699999
75	1	2	-0.26884699	3.2349999	-1.574	0.54500002
76	1	3	0.226559	3.835	-2.349	1.005
77	1	2	-0.32315001	6.7930002	0.81199998	2.5090001
78	1	5	0.76608998	6.1960001	1.451	3.7390001
79	1	7	-0.20938	5.6079998	0.47400001	4.5190001
80	1	7	-0.20938	7.1529999	2.115	4.4920001
81	1	7	-0.20938	5.2309999	2.3640001	3.365
82	1	2	-0.058127001	8.1219997	0.81999999	2.2839999
83	1	3	0.205185	8.8009996	1.303	2.973
84	1	2	-0.115781	10.936	-0.99400002	0.56400001
85	1	3	0.20281599	10.46	-1.97	0.58700001
86	1	2	-0.40782401	12.252	-0.91000003	0.31799999
87	1	3	0.220294	12.832	-1.816	0.148
88	1	6	0.37202501	14.89	-0.37400001	-0.13600001
89	1	2	0.76767999	-14.76	0.68300003	-0.289
90	1	9	-0.66066802	-14.704	0.91299999	-1.526
91	1	2	-0.38191	-15.558	-0.43900001	0.236
92	1	2	-0.103797	-15.606	-0.67000002	1.559
93	1	3	0.21828499	-15.063	-0.039000001	2.2520001
94	1	2	-0.040495001	-16.405001	-1.793	2.0940001
95	1	3	0.21415301	-16.424999	-1.955	3.165
96	1	2	-0.35247901	-17.091	-2.596	1.263
97	1	2	0.59147799	-17.885	-3.7130001	1.8049999
98	1	9	-0.530258	-18.534	-4.474	1.04
99	1	2	-0.040495001	-17.039	-2.342	-0.199
100	1	3	0.21415301	-17.586	-2.9779999	-0.884
101	1	2	-0.103797	-16.316	-1.325	-0.68300003
102	1	3	0.21828499	-16.289	-1.155	-1.752
103	1	1	-0.41249299	14.755	1.408	-0.28799999
104	1	2	0.12542599	15.797	1.493	-1.266
105	1	2	-0.40782401	16.389	0.377	-1.73
106	1	3	0.220294	16.089001	-0.59799999	-1.36
107	1	2	-0.115781	17.450001	0.46900001	-2.7579999
108	1	3	0.20281599	17.909	-0.447	-3.1170001
109	1	2	-0.12902901	17.82	1.666	-3.2539999
110	1	2	-0.135234	18.861	1.755	-4.3000002
111	1	2	-0.131063	18.621	2.4159999	-5.447
112	1	3	0.20611	17.676001	2.9070001	-5.6139998
113	1	2	-0.297162	19.622999	2.4170001	-6.527
114	1	3	0.22292501	19.381001	2.925	-7.4520001
115	1	2	0.32788199	20.799	1.775	-6.3709998
116	1	4	-0.273249	21.764	1.705	-7.388
117	1	2	0.25766799	21.552999	2.059	-8.7270002
118	1	2	-0.26884699	21.5	1.099	-9.665
119	1	3	0.226559	21.582001	0.057999998	-9.3800001
120	1	2	-0.17621	21.384001	1.4529999	-11.089
121	1	3	0.216739	21.379	0.65100002	-11.821
122	1	2	-0.188279	21.348	2.7479999	-11.486
123	1	5	0.01526	21.385	3.0669999	-12.997
124	1	2	-0.188279	22.714001	2.4990001	-13.563
125	1	2	-0.17621	22.834	1.9579999	-14.8
126	1	3	0.216739	21.993999	1.875	-15.471
127	1	2	-0.26884699	24.122999	1.406	-15.275
128	1	3	0.226559	24.167999	0.92400002	-16.246
129	1	2	0.25766799	25.211	1.47	-14.492
130	1	4	-0.273249	26.437	0.91100001	-14.873
131	1	2	0.32788199	26.941999	0.875	-16.183001
132	1	2	-0.297162	27.292	-0.31200001	-16.695
133	1	3	0.22292501	27.139	-1.219	-16.122
134	1	2	-0.131063	27.908001	-0.40599999	-18.032
135	1	3	0.20611	28.202	-1.38	-18.391001
136	1	2	-0.135234	28.125999	0.69999999	-18.764
137	1	2	-0.12902901	28.851	0.63	-20.056999
138	1	2	-0.079186	28.490999	1.408	-21.096001
139	1	3	0.20281599	27.631001	2.062	-21.028999
140	1	2	-0.45194399	29.266001	1.385	-22.355
141	1	3	0.228771	28.974001	2.0339999	-23.167
142	1	2	0.31645	30.344999	0.597	-22.469999
143	1	1	-0.84528601	31.118	0.58999997	-23.672001
144	1	6	0.36524999	30.875	1.209	-24.476999
145	1	6	0.36524999	31.951	-0.033	-23.766001
146	1	2	-0.45194399	30.737	-0.26800001	-21.337999
147	1	3	0.228771	31.603001	-0.91000003	-21.419001
148	1	2	-0.079186	30.032	-0.25799999	-20.202
149	1	3	0.20281599	30.356001	-0.87	-19.371
150	1	2	-0.058127001	27.719	2.016	-18.214001
151	1	3	0.205185	27.921	2.904	-18.798
152	1	2	-0.32315001	27.184999	2.1240001	-16.978001
153	1	5	0.76608998	26.877001	3.4909999	-16.398001
154	1	7	-0.20938	27.584999	4.4889998	-17.046
155	1	7	-0.20938	25.523001	3.757	-16.52
156	1	7	-0.20938	27.232	3.5339999	-15.061
157	1	2	-0.26884699	25.118999	2.1259999	-13.172
158	1	3	0.226559	26.007	2.2260001	-12.558
159	1	2	-0.17621	23.958	2.631	-12.745
160	1	3	0.216739	23.931999	3.1500001	-11.793
161	1	5	-0.12925699	21.379999	4.6009998	-13.255
162	1	8	0.110712	22.295	5.072	-12.834
163	1	8	0.110712	20.499001	5.0609999	-12.755
164	1	5	-0.129007	21.297001	4.9569998	-14.749
165	1	8	0.113025	21.087999	6.0450001	-14.835
166	1	8	0.113025	22.283001	4.783	-15.233
167	1	5	-0.150567	20.215	4.1739998	-15.516
168	1	8	0.115732	20.688999	3.51	-16.264
169	1	8	0.115732	19.579	4.881	-16.09
170	1	5	-0.129007	19.312	3.3410001	-14.604
171	1	8	0.113025	18.634001	2.7160001	-15.227
172	1	8	0.113025	18.671	4.0339999	-14.016
173	1	5	-0.12925699	20.091	2.427	-13.638
174	1	8	0.110712	19.354	2.1700001	-12.845
175	1	8	0.110712	20.309	1.451	-14.122
176	1	2	-0.17621	21.371	3.8110001	-10.425
177	1	3	0.216739	21.341999	4.8590002	-10.673
178	1	2	-0.26884699	21.468	3.477	-9.1260004
179	1	3	0.226559	21.513	4.2529998	-8.3710003
180	1	2	-0.32315001	21.099001	1.092	-5.079
181	1	5	0.76608998	22.451	0.45199999	-4.8829999
182	1	7	-0.20938	23.427999	1.429	-4.9330001
183	1	7	-0.20938	22.539	-0.212	-3.6689999
184	1	7	-0.20938	22.684	-0.461	-5.8920002
185	1	2	-0.058127001	20.167	1.0829999	-4.105
186	1	3	0.205185	20.357	0.60000002	-3.1559999
187	1	2	-0.115781	17.164	2.8970001	-2.74
188	1	3	0.20281599	17.451	3.8729999	-3.1210001
189	1	2	-0.40782401	16.223	2.8139999	-1.788
190	1	3	0.220294	15.757	3.72	-1.403
191	1	6	0.37202501	14.367	2.277	0.141
192	1	2	0.59147799	-17.917999	-3.891	2.872
193	1	9	-0.530258	-17.660999	-5.046	3.3050001
194	1	2	-0.35247901	-18.259001	-2.796	3.7980001
195	1	2	-0.037025999	-18.531	-1.571	3.3199999
196	1	3	0.21415301	-18.503	-1.373	2.2550001
197	1	2	-0.079089001	-18.874001	-0.46700001	4.2410002
198	1	3	0.230298	-19.087	0.50800002	3.8199999
199	1	2	-0.280954	-18.917999	-0.67500001	5.5700002
200	1	2	0.83815199	-19.26	0.419	6.506
201	1	9	-0.49068999	-19.518	1.577	6.0749998
202	1	10	-0.665856	-19.299	0.178	7.8759999
203	1	11	0.41690499	-19.532	0.917	8.5279999
204	1	2	-0.079089001	-18.618	-2.03	6.0970001
205	1	3	0.230298	-18.646999	-2.2219999	7.1620002
206	1	2	-0.037025999	-18.306999	-3.03	5.2620001
207	1	3	0.21415301	-18.091999	-4.0110002	5.6669998

Bonds

1	1	1	2
2	2	1	88
3	3	1	103
4	4	2	3
5	4	2	86
6	5	3	4
7	4	3	5
8	5	5	6
9	4	5	7
10	6	7	8
11	4	7	84
12	4	8	9
13	4	8	82
14	5	9	10
15	4	9	11
16	5	11	12
17	4	11	13
18	7	13	14
19	4	13	77
20	7	14	15
21	4	15	16
22	4	15	75
23	5	16	17
24	4	16	18
25	5	18	19
26	4	18	20
27	8	20	21
28	4	20	73
29	8	21	22
30	9	21	58
31	9	21	70
32	4	22	23
33	4	22	56
34	5	23	24
35	4	23	25
36	5	25	26
37	4	25	27
38	7	27	28
39	4	27	54
40	7	28	29
41	4	29	30
42	4	29	49
43	5	30	31
44	4	30	32
45	5	32	33
46	4	32	34
47	6	34	35
48	4	34	47
49	4	35	36
50	4	35	45
51	5	36	37
52	4	36	38
53	5	38	39
54	4	38	40
55	1	40	41
56	4	40	43
57	2	41	42
58	10	41	89
59	5	43	44
60	4	43	45
61	5	45	46
62	5	47	48
63	4	47	49
64	8	49	50
65	11	50	51
66	11	50	52
67	11	50	53
68	5	54	55
69	4	54	56
70	5	56	57
71	12	58	59
72	12	58	60
73	9	58	61
74	12	61	62
75	12	61	63
76	9	61	64
77	12	64	65
78	12	64	66
79	9	64	67
80	12	67	68
81	12	67	69
82	9	67	70
83	12	70	71
84	12	70	72
85	5	73	74
86	4	73	75
87	5	75	76
88	8	77	78
89	4	77	82
90	11	78	79
91	11	78	80
92	11	78	81
93	5	82	83
94	5	84	85
95	4	84	86
96	5	86	87
97	13	89	90
98	6	89	91
99	4	91	92
100	4	91	101
101	5	92	93
102	4	92	94
103	5	94	95
104	4	94	96
105	6	96	97
106	4	96	99
107	13	97	98
108	6	97	192
109	5	99	100
110	4	99	101
111	5	101	102
112	1	103	104
113	2	103	191
114	4	104	105
115	4	104	189
116	5	105	106
117	4	105	107
118	5	107	108
119	4	107	109
120	6	109	110
121	4	109	187
122	4	110	111
123	4	110	185
124	5	111	112
125	4	111	113
126	5	113	114
127	4	113	115
128	7	115	116
129	4	115	180
130	7	116	117
131	4	117	118
132	4	117	178
133	5	118	119
134	4	118	120
135	5	120	121
136	4	120	122
137	8	122	123
138	4	122	176
139	8	123	124
140	9	123	161
141	9	123	173
142	4	124	125
143	4	124	159
144	5	125	126
145	4	125	127
146	5	127	128
147	4	127	129
148	7	129	130
149	4	129	157
150	7	130	131
151	4	131	132
152	4	131	152
153	5	132	133
154	4	132	134
155	5	134	135
156	4	134	136
157	6	136	137
158	4	136	150
159	4	137	138
160	4	137	148
161	5	138	139
162	4	138	140
163	5	140	141
164	4	140	142
165	1	142	143
166	4	142	146
167	2	143	144
168	2	143	145
169	5	146	147
170	4	146	148
171	5	148	149
172	5	150	151
173	4	150	152
174	8	152	153
175	11	153	154
176	11	153	155
177	11	153	156
178	5	157	158
179	4	157	159
180	5	159	160
181	12	161	162
182	12	161	163
183	9	161	164
184	12	164	165
185	12	164	166
186	9	164	167
187	12	167	168
188	12	167	169
189	9	167	170
190	12	170	171
191	12	170	172
192	9	170	173
193	12	173	174
194	12	173	175
195	5	176	177
196	4	176	178
197	5	178	179
198	8	180	181
199	4	180	185
200	11	181	182
201	11	181	183
202	11	181	184
203	5	185	186
204	5	187	188
205	4	187	189
206	5	189	190
207	13	192	193
208	6	192	194
209	4	194	195
210	4	194	206
211	5	195	196
212	4	195	197
213	5	197	198
214	4	197	199
215	6	199	200
216	4	199	204
217	13	200	201
218	14	200	202
219	15	202	203
220	5	204	205
221	4	204	206
222	5	206	207

Angles

1	1	29	30	32
2	6	161	164	167
3	1	13	77	78
4	4	187	189	190
5	1	91	101	99
6	6	51	50	52
7	4	27	54	55
8	1	113	115	116
9	4	35	36	37
10	4	54	56	57
11	1	134	136	137
12	4	104	189	190
13	6	170	173	175
14	1	8	9	11
15	6	122	123	173
16	1	181	180	185
17	1	7	8	9
18	4	77	82	83
19	6	66	64	67
20	4	55	54	56
21	1	15	16	18
22	1	197	199	200
23	1	199	200	201
24	6	21	58	59
25	6	61	64	67
26	4	7	84	85
27	5	27	28	29
28	3	142	143	145
29	1	20	73	75
30	1	105	107	109
31	1	29	49	47
32	1	124	159	157
33	1	103	104	189
34	4	110	111	112
35	1	200	199	204
36	6	59	58	61
37	1	5	7	8
38	1	109	187	189
39	6	52	50	53
40	1	25	27	28
41	3	104	103	191
42	4	124	125	126
43	1	7	8	82
44	6	162	161	164
45	6	165	164	167
46	1	30	29	49
47	4	2	86	87
48	1	18	20	21
49	1	34	35	45
50	1	131	132	134
51	7	168	167	169
52	4	141	140	142
53	7	171	170	172
54	1	110	185	180
55	1	107	109	187
56	1	89	91	101
57	4	2	3	4
58	4	34	47	48
59	1	125	124	159
60	1	118	120	122
61	4	137	138	139
62	3	2	1	88
63	6	182	181	183
64	4	9	11	12
65	6	22	21	70
66	4	19	18	20
67	1	129	157	159
68	1	1	2	86
69	4	158	157	159
70	1	150	152	153
71	6	65	64	67
72	4	108	107	109
73	1	194	195	197
74	1	96	99	101
75	1	8	82	77
76	1	138	137	148
77	3	42	41	89
78	6	49	50	53
79	4	119	118	120
80	4	15	75	76
81	4	117	178	179
82	1	123	122	176
83	4	85	84	86
84	1	3	2	86
85	1	21	22	56
86	1	94	96	97
87	1	11	13	77
88	1	127	129	130
89	1	127	129	157
90	6	170	173	174
91	1	137	136	150
92	4	111	113	114
93	4	95	94	96
94	4	15	16	17
95	4	199	204	205
96	6	61	64	66
97	6	63	61	64
98	4	91	92	93
99	4	91	101	102
100	8	201	200	202
101	1	38	40	41
102	7	59	58	60
103	1	22	23	25
104	4	126	125	127
105	4	8	82	83
106	4	109	187	188
107	6	123	161	162
108	4	117	118	119
109	7	162	161	163
110	7	165	164	166
111	4	157	159	160
112	1	28	29	30
113	1	47	49	50
114	1	92	94	96
115	1	117	178	176
116	4	131	132	133
117	4	104	105	106
118	1	115	180	185
119	4	84	86	87
120	4	139	138	140
121	6	180	181	182
122	4	124	159	160
123	4	129	157	158
124	4	151	150	152
125	6	123	173	175
126	6	21	70	72
127	7	62	61	63
128	7	65	64	66
129	6	79	78	81
130	4	194	195	196
131	4	96	99	100
132	6	164	167	168
133	1	28	27	54
134	4	12	11	13
135	6	152	153	156
136	6	49	50	52
137	4	112	111	113
138	4	138	140	141
139	4	26	25	27
140	1	97	192	194
141	6	64	67	70
142	1	35	45	43
143	1	137	148	146
144	6	124	123	173
145	1	5	7	84
146	1	30	32	34
147	6	167	170	171
148	1	41	89	91
149	4	125	127	128
150	1	192	194	195
151	4	106	105	107
152	3	144	143	145
153	1	8	7	84
154	6	80	78	81
155	1	195	194	206
156	1	40	43	45
157	1	142	146	148
158	1	105	104	189
159	6	163	161	164
160	1	16	18	20
161	1	193	192	194
162	4	196	195	197
163	4	33	32	34
164	1	36	38	40
165	4	92	94	95
166	4	133	132	134
167	4	205	204	206
168	4	44	43	45
169	6	58	61	62
170	1	22	56	54
171	1	192	194	206
172	4	136	150	151
173	4	93	92	94
174	1	97	96	99
175	4	180	185	186
176	1	14	15	75
177	6	166	164	167
178	1	132	134	136
179	1	14	13	77
180	6	21	70	71
181	6	123	173	174
182	4	8	9	10
183	6	79	78	80
184	1	134	136	150
185	6	152	153	155
186	6	20	21	70
187	4	122	176	177
188	5	200	202	203
189	1	195	197	199
190	4	29	30	31
191	4	74	73	75
192	6	161	164	166
193	2	40	41	89
194	5	129	130	131
195	3	40	41	42
196	4	121	120	122
197	6	60	58	61
198	1	23	25	27
199	6	122	123	161
200	1	90	89	91
201	1	130	129	157
202	1	194	206	204
203	4	110	185	186
204	4	43	45	46
205	3	142	143	144
206	1	21	20	73
207	4	35	45	46
208	4	40	43	44
209	4	142	146	147
210	4	20	73	74
211	1	115	180	181
212	1	27	54	56
213	4	105	107	108
214	4	24	23	25
215	4	16	18	19
216	1	41	40	43
217	5	115	116	117
218	1	25	27	54
219	1	35	34	47
220	1	199	200	202
221	4	118	120	121
222	4	204	206	207
223	4	37	36	38
224	1	38	40	43
225	6	22	21	58
226	1	110	111	113
227	4	132	134	135
228	4	137	148	149
229	1	140	142	143
230	6	123	161	164
231	1	116	117	118
232	6	168	167	170
233	6	171	170	173
234	4	22	56	57
235	6	20	21	22
236	4	195	197	198
237	6	77	78	81
238	1	137	138	140
239	6	161	164	165
240	1	32	34	35
241	1	9	11	13
242	6	180	181	184
243	6	161	123	173
244	1	132	131	152
245	1	116	117	178
246	4	73	75	76
247	4	31	30	32
248	4	23	25	26
249	6	164	167	170
250	1	116	115	180
251	6	122	123	124
252	1	18	20	73
253	6	68	67	70
254	4	114	113	115
255	4	4	3	5
256	1	96	97	98
257	4	6	5	7
258	6	154	153	156
259	4	147	146	148
260	4	10	9	11
261	6	61	64	65
262	2	1	103	104
263	4	99	101	102
264	6	155	153	156
265	1	118	117	178
266	6	69	67	70
267	6	169	167	170
268	4	177	176	178
269	4	22	23	24
270	6	21	70	67
271	6	123	173	170
272	4	100	99	101
273	6	167	170	173
274	1	111	113	115
275	4	194	206	207
276	1	199	204	206
277	1	3	5	7
278	6	21	58	61
279	1	91	92	94
280	1	16	15	75
281	1	21	22	23
282	1	13	77	82
283	1	89	91	92
284	1	92	91	101
285	3	88	1	103
286	1	143	142	146
287	6	123	161	163
288	1	117	118	120
289	4	17	16	18
290	1	109	110	185
291	4	135	134	136
292	6	49	50	51
293	1	28	29	49
294	6	58	61	64
295	1	9	8	82
296	5	13	14	15
297	1	197	199	204
298	1	110	109	187
299	1	34	35	36
300	1	97	192	193
301	1	120	122	123
302	6	64	67	69
303	6	67	70	72
304	6	77	78	80
305	1	113	115	180
306	1	104	105	107
307	1	123	124	159
308	6	180	181	183
309	7	174	173	175
310	1	78	77	82
311	4	198	197	199
312	1	104	189	187
313	1	140	142	146
314	6	124	123	161
315	6	62	61	64
316	4	30	32	33
317	6	164	167	169
318	1	41	89	90
319	1	136	137	138
320	7	68	67	69
321	7	71	70	72
322	1	138	140	142
323	1	109	110	111
324	6	154	153	155
325	1	123	124	125
326	6	51	50	53
327	6	58	21	70
328	1	35	36	38
329	1	98	97	192
330	4	36	38	39
331	6	167	170	172
332	1	1	2	3
333	1	125	127	129
334	1	2	86	84
335	2	2	1	103
336	1	120	122	176
337	4	3	5	6
338	1	23	22	56
339	1	131	152	153
340	6	21	58	60
341	1	7	84	86
342	1	94	96	99
343	1	32	34	47
344	1	96	97	192
345	1	14	15	16
346	1	36	35	45
347	6	172	170	173
348	1	11	13	14
349	1	124	125	127
350	1	111	110	185
351	6	152	153	154
352	4	39	38	40
353	6	58	61	63
354	1	15	75	73
355	1	130	131	132
356	6	20	21	58
357	1	2	3	5
358	1	34	47	49
359	1	136	150	152
360	6	64	67	68
361	6	67	70	71
362	6	77	78	79
363	6	182	181	184
364	4	48	47	49
365	1	29	49	50
366	1	107	109	110
367	4	188	187	189
368	1	136	137	148
369	6	183	181	184
370	3	1	103	191
371	1	103	104	105
372	1	122	176	178
373	4	146	148	149
374	1	131	152	150
375	4	176	178	179
376	1	130	131	152
377	4	128	127	129

Dihedrals

1	7	122	123	161	162
2	1	14	15	75	76
3	16	96	97	192	194
4	1	14	15	16	17
5	1	128	127	129	157
6	1	124	125	127	129
7	1	41	40	43	45
8	5	113	115	116	117
9	1	151	150	152	153
10	2	43	40	41	89
11	1	137	148	146	142
12	7	20	21	58	60
13	1	23	25	27	28
14	5	27	28	29	49
15	7	124	123	161	164
16	19	165	164	167	168
17	2	3	2	1	88
18	1	15	16	18	20
19	19	68	67	70	72
20	1	15	75	73	20
21	1	91	101	99	96
22	1	97	96	99	101
23	1	29	49	47	34
24	1	123	124	159	160
25	1	104	105	107	108
26	1	110	109	187	189
27	8	58	21	70	71
28	9	61	58	21	70
28	10	61	58	21	70
28	11	61	58	21	70
29	6	150	152	153	154
30	12	40	41	89	90
30	13	40	41	89	90
31	1	92	94	96	99
32	7	122	123	173	175
33	1	48	47	49	50
34	8	123	161	164	165
35	1	113	115	180	185
36	1	129	157	159	160
37	1	105	104	189	190
38	1	138	140	142	143
39	9	164	161	123	173
39	10	164	161	123	173
39	11	164	161	123	173
40	2	86	2	1	103
41	1	116	117	178	179
42	6	184	181	180	185
43	6	159	124	123	173
44	6	115	180	181	183
45	7	22	21	70	67
46	1	136	150	152	153
47	1	55	54	56	57
48	1	114	113	115	180
49	1	9	11	13	14
50	1	139	138	137	148
51	1	33	32	34	47
52	5	13	14	15	75
53	1	136	137	148	149
54	1	135	134	136	150
55	1	139	138	140	142
56	16	41	89	91	92
57	1	198	197	199	200
58	1	24	23	22	56
59	19	59	58	61	63
60	9	61	64	67	70
60	10	61	64	67	70
60	11	61	64	67	70
61	1	7	8	82	77
62	1	11	9	8	82
63	1	35	36	38	40
64	8	64	67	70	71
65	1	195	197	199	204
66	7	124	123	173	174
67	1	91	92	94	96
68	1	100	99	101	102
69	21	201	200	202	203
69	22	201	200	202	203
70	1	36	38	40	41
71	1	127	129	157	158
72	1	121	120	122	123
73	1	8	82	77	78
74	19	65	64	67	69
75	16	193	192	194	206
76	8	161	123	173	175
77	7	22	21	70	71
78	2	105	104	103	191
79	1	117	118	120	121
80	1	136	137	148	146
81	1	111	113	115	116
82	1	91	101	99	100
83	5	115	116	117	118
84	6	23	22	21	70
85	7	22	21	58	60
86	1	94	96	99	101
87	1	142	146	148	149
88	1	103	104	105	107
89	1	12	11	13	14
90	1	120	118	117	178
91	1	9	8	82	77
92	8	21	70	67	68
93	3	2	1	103	104
94	19	172	170	173	175
95	6	18	20	21	58
96	1	17	16	15	75
97	1	1	2	86	84
98	1	93	92	94	96
99	19	171	170	173	175
100	17	42	41	89	90
100	18	42	41	89	90
101	6	80	78	77	82
102	5	131	130	129	157
103	16	96	97	192	193
104	4	107	109	110	185
105	1	124	125	127	128
106	1	20	73	75	76
107	19	69	67	70	72
108	1	16	18	20	73
109	1	131	152	150	136
110	1	35	34	47	49
111	7	20	21	58	59
112	1	23	25	27	54
113	1	15	16	18	19
114	1	192	194	195	196
115	19	68	67	70	71
116	1	125	127	129	130
117	1	125	127	129	157
118	1	8	9	11	12
119	1	97	96	99	100
120	1	18	20	73	75
121	1	28	29	49	50
122	1	21	20	73	74
123	1	103	104	189	187
124	1	110	109	187	188
125	6	173	123	122	176
126	1	140	142	146	148
127	16	197	199	200	201
128	1	121	120	122	176
129	1	134	132	131	152
130	1	14	13	77	82
131	1	124	159	157	129
132	1	133	132	131	152
133	6	131	152	153	156
134	6	56	22	21	58
135	6	70	21	20	73
136	4	32	34	35	36
137	1	118	120	122	123
138	6	125	124	123	161
139	1	95	94	96	99
140	1	44	43	45	46
141	16	97	192	194	206
142	6	79	78	77	82
143	4	107	109	110	111
144	1	92	91	101	99
145	8	66	64	67	70
146	4	138	137	136	150
147	8	123	173	170	172
148	8	166	164	167	170
149	1	34	35	45	43
150	1	139	138	140	141
151	1	4	3	5	7
152	1	28	29	30	32
153	19	162	161	164	166
154	19	169	167	170	171
155	1	34	35	36	37
156	8	164	167	170	171
157	8	167	170	173	175
158	4	5	7	8	9
159	1	10	9	11	12
160	6	20	21	22	23
161	6	13	77	78	79
162	1	112	111	113	115
163	1	22	56	54	27
164	1	6	5	7	8
165	1	138	140	142	146
166	1	194	206	204	199
167	1	5	7	84	85
168	2	38	40	41	89
169	4	148	137	136	150
170	2	38	40	41	42
171	19	65	64	67	68
172	16	98	97	96	99
173	8	161	123	173	174
174	8	62	61	64	67
175	1	141	140	142	143
176	5	117	116	115	180
177	6	47	49	50	53
178	2	86	2	1	88
179	1	94	96	99	100
180	1	130	131	152	150
181	1	1	2	3	5
182	1	35	45	43	40
183	3	88	1	103	104
184	1	114	113	115	116
185	9	21	58	61	64
185	10	21	58	61	64
185	11	21	58	61	64
186	4	5	7	8	82
187	1	110	111	113	115
188	1	28	29	49	47
189	19	172	170	173	174
190	1	28	27	54	56
191	6	29	49	50	53
192	9	58	21	70	67
192	10	58	21	70	67
192	11	58	21	70	67
193	1	23	22	56	57
194	1	2	86	84	7
195	1	113	115	180	181
196	1	158	157	159	160
197	1	205	204	206	207
198	1	92	94	96	97
199	1	96	99	101	102
200	1	9	11	13	77
201	1	137	136	150	151
202	8	63	61	64	67
203	1	22	23	25	26
204	19	60	58	61	62
205	1	35	45	43	44
206	8	58	61	64	66
207	6	120	122	123	173
208	1	106	105	104	189
209	1	104	189	187	109
210	1	106	105	107	109
211	1	117	178	176	177
212	1	18	16	15	75
213	1	112	111	110	185
214	1	177	176	178	179
215	1	21	22	23	25
216	1	131	132	134	136
217	1	118	117	178	176
218	1	1	2	86	87
219	1	132	134	136	150
220	1	137	138	140	141
221	1	138	137	148	146
222	6	20	21	22	56
223	1	197	199	204	205
224	1	195	197	199	200
225	7	124	123	173	170
226	1	140	142	146	147
227	8	168	167	170	173
228	1	123	124	125	127
229	16	193	192	194	195
230	7	122	123	161	164
231	1	11	13	77	82
232	2	189	104	103	191
233	1	36	35	45	43
234	1	143	142	146	148
235	1	200	199	204	205
236	4	134	136	137	138
237	1	12	11	13	77
238	1	38	40	43	44
239	1	3	5	7	84
240	1	130	131	132	134
241	1	140	138	137	148
242	8	165	164	167	170
243	1	109	187	189	190
244	1	132	131	152	150
245	16	202	200	199	204
246	19	66	64	67	69
247	8	123	173	170	171
248	8	60	58	21	70
249	19	163	161	164	165
250	19	166	164	167	169
251	1	147	146	148	149
252	1	30	32	34	35
253	19	162	161	164	165
254	1	32	34	47	49
255	1	37	36	35	45
256	9	21	70	67	64
256	10	21	70	67	64
256	11	21	70	67	64
257	1	31	30	32	33
258	1	39	38	40	41
259	1	123	122	176	178
260	1	133	132	134	135
261	1	103	104	189	190
262	1	37	36	38	39
263	1	188	187	189	190
264	1	13	77	82	83
265	6	150	152	153	156
266	1	196	195	194	206
267	1	25	23	22	56
268	9	123	161	164	167
268	10	123	161	164	167
268	11	123	161	164	167
269	1	32	30	29	49
270	1	23	22	56	54
271	1	25	27	54	55
272	1	194	206	204	205
273	2	140	142	143	144
274	1	134	136	150	152
275	16	41	89	91	101
276	1	24	23	25	27
277	3	2	1	103	191
278	19	62	61	64	66
279	1	3	5	7	8
280	1	16	15	75	73
281	1	92	91	101	102
282	1	1	2	3	4
283	1	34	35	45	46
284	1	136	137	138	140
285	1	110	111	113	114
286	1	89	91	101	99
287	1	110	185	180	181
288	1	181	180	185	186
289	6	81	78	77	82
290	16	98	97	192	194
291	8	161	164	167	168
292	5	25	27	28	29
293	1	107	109	187	189
294	1	17	16	18	20
295	1	36	38	40	43
296	8	163	161	123	173
297	1	14	13	77	78
298	1	125	124	159	157
299	16	97	192	194	195
300	2	3	2	1	103
301	8	162	161	123	173
302	5	11	13	14	15
303	5	115	116	117	178
304	1	41	40	43	44
305	1	8	82	77	13
306	1	141	140	142	146
307	1	130	131	152	153
308	7	124	123	161	163
309	8	58	61	64	65
310	1	95	94	96	97
311	1	89	91	92	94
312	1	8	7	84	86
313	1	106	105	107	108
314	1	7	8	82	83
315	1	108	107	109	187
316	1	196	195	197	199
317	1	6	5	7	84
318	1	19	18	20	73
319	7	122	123	173	174
320	1	195	194	206	207
321	4	45	35	34	47
322	1	192	194	206	204
323	4	111	110	109	187
324	1	14	15	16	18
325	4	32	34	35	45
326	4	134	136	137	148
327	6	115	180	181	182
328	7	20	21	70	72
329	1	143	142	146	147
330	6	159	124	123	161
331	9	161	123	173	170
331	10	161	123	173	170
331	11	161	123	173	170
332	7	20	21	58	61
333	1	113	111	110	185
334	1	130	131	132	133
335	4	36	35	34	47
336	19	165	164	167	169
337	1	109	110	185	180
338	1	9	8	82	83
339	5	13	14	15	16
340	1	117	178	176	122
341	19	59	58	61	62
342	1	118	117	178	179
343	1	120	122	176	178
344	6	124	123	122	176
345	8	61	64	67	69
346	1	104	105	107	109
347	1	119	118	120	122
348	1	35	36	38	39
349	1	91	92	94	95
350	8	123	161	164	166
351	1	116	115	180	185
352	1	124	159	157	158
353	3	88	1	103	191
354	1	36	35	45	46
355	16	94	96	97	192
356	1	137	148	146	147
357	2	145	143	142	146
358	1	24	23	25	26
359	16	90	89	91	101
360	1	4	3	2	86
361	1	16	18	20	21
362	7	22	21	58	59
363	1	132	131	152	153
364	2	144	143	142	146
365	6	23	22	21	58
366	1	103	104	105	106
367	6	182	181	180	185
368	20	199	200	202	203
369	8	169	167	170	173
370	9	164	167	170	173
370	10	164	167	170	173
370	11	164	167	170	173
371	1	127	125	124	159
372	1	85	84	86	87
373	1	93	92	94	95
374	19	171	170	173	174
375	6	13	77	78	81
376	7	124	123	173	175
377	4	82	8	7	84
378	16	98	97	192	193
379	1	195	194	206	204
380	1	107	109	187	188
381	1	118	120	122	176
382	1	127	129	157	159
383	1	138	137	148	149
384	4	9	8	7	84
385	1	11	13	77	78
386	8	65	64	67	70
387	19	69	67	70	71
388	7	22	21	70	72
389	1	117	118	120	122
390	1	35	34	47	48
391	7	124	123	161	162
392	1	16	15	75	76
393	1	21	22	56	54
394	1	126	125	127	129
395	1	109	110	185	186
396	1	89	91	92	93
397	9	123	173	170	167
397	10	123	173	170	167
397	11	123	173	170	167
398	1	8	7	84	85
399	16	94	96	97	98
400	6	18	20	21	70
401	1	89	91	101	102
402	1	18	20	73	74
403	1	130	129	157	159
404	1	7	84	86	87
405	1	196	195	197	198
406	1	116	117	118	120
407	1	3	2	86	87
408	1	125	124	159	160
409	16	99	96	97	192
410	1	74	73	75	76
411	1	108	107	109	110
412	6	131	152	153	155
413	1	115	180	185	186
414	7	20	21	70	71
415	8	60	58	61	64
416	1	192	194	195	197
417	1	4	3	5	6
418	16	201	200	199	204
419	1	109	110	111	113
420	1	28	29	30	31
421	1	8	9	11	13
422	1	7	8	9	10
423	8	167	170	173	174
424	1	21	20	73	75
425	1	120	122	176	177
426	8	61	64	67	68
427	1	105	107	109	110
428	1	194	195	197	199
429	1	119	118	120	121
430	1	112	111	113	114
431	16	197	199	200	202
432	1	192	194	206	207
433	6	56	22	21	70
434	6	125	124	123	173
435	1	31	30	29	49
436	1	94	92	91	101
437	5	129	130	131	132
438	6	183	181	180	185
439	1	197	195	194	206
440	6	47	49	50	52
441	1	126	125	124	159
442	1	122	176	178	179
443	8	163	161	164	167
444	8	162	161	164	167
445	8	21	58	61	63
446	1	38	36	35	45
447	19	169	167	170	172
448	1	30	29	49	50
449	1	34	35	36	38
450	1	39	38	40	43
451	8	164	167	170	172
452	1	28	27	54	55
453	1	10	9	11	13
454	6	29	49	50	52
455	6	13	77	78	80
456	1	26	25	27	28
457	1	2	3	5	7
458	1	22	56	54	55
459	7	122	123	173	170
460	1	5	7	84	86