Title

68 atoms
71 bonds
118 angles
171 dihedrals
78 impropers

9 atom types
13 bond types
5 angle types
8 dihedral types
2 improper types
-6.84100008 93.15899992 xlo xhi
-3.342999935 96.65700006 ylo yhi
-8.833999634 91.16600037 zlo zhi
0.0 0.0 0.0 xy xz yz

Masses

1	15.99943
2	12.01078
3	1.007947
4	12.01078
5	18.998403
6	15.99943
7	15.99943
8	1.007947
9	35.4532


Pair Coeffs

1	0.16846514	3.0251065
2	0.086879315	3.4806469
3	0.015611343	2.5725815
4	0.10884061	3.3795318
5	0.061	3.1181455
6	0.2102061	3.0398122
7	0.20947353	2.99716
8	1.2326e-05	0.53453923
9	0.2656001	3.3075278

Bond Coeffs

1 harmonic	425.69104206635	1.362945806494
2 harmonic	300.03137914615	1.451203938761
3 harmonic	360.7852444772	1.387193227181
4 harmonic	397.2545789619	1.085358495916
5 harmonic	289.73813263395	1.498646816465
6 harmonic	264.62148576755	1.52190126495
7 harmonic	301.15400723785	1.345741232799
8 harmonic	340.45121009905	1.358690858053
9 harmonic	582.698766451	1.225198386222
10 harmonic	279.1350963404	1.454628925034
11 harmonic	385.7604595587	1.369745182308
12 harmonic	543.5267831885	0.9716763312559
13 harmonic	218.0227703685	1.746066037062


Angle Coeffs

1 harmonic	57.8982893754	126.8062420451
2 harmonic	65.09061609600001	110.3538806181
3 harmonic	34.066775159195	129.1835929926
4 harmonic	53.20531626545	116.5475862634
5 harmonic	201.41175231035	127.4691416191


Dihedral Coeffs

1 fourier 1	3.661930099076	2	180
2 fourier 1	1.532232714475	2	180
3 fourier 1	0.457973137376	1	0
4 fourier 1	0.02664938770063	3	0
5 fourier 1	0.1155372516788	3	0
6 fourier 1	2.779853741805	2	180
7 fourier 1	0.9974165607242	2	180
8 fourier 1	0.8283030590042	2	180


Improper Coeffs

1 0.3666666666666667	-1	2
2 3.5	-1	2


Atoms

1	1	1	-0.021493999	4.7280002	1.857	1.183
2	1	2	0.27856001	3.592	1.158	0.78500003
3	1	2	-0.319332	2.5639999	1.025	1.628
4	1	3	0.22706001	2.6129999	1.456	2.6199999
5	1	2	-0.156856	1.355	0.285	1.216
6	1	3	0.211046	0.55400002	0.186	1.938
7	1	2	-0.085545003	1.244	-0.248	-0.024
8	1	4	-0.26585999	-0.024	-1.056	-0.405
9	1	2	-0.085545003	-1.286	-0.26899999	0.030999999
10	1	2	-0.157712	-1.391	1.05	-0.25999999
11	1	3	0.211046	-0.58899999	1.574	-0.76300001
12	1	2	-0.27123499	-2.596	1.822	0.103
13	1	3	0.22697	-2.638	2.8789999	-0.127
14	1	2	0.43951899	-3.6270001	1.2180001	0.708
15	1	1	-0.440597	-4.7719998	1.932	1.057
16	1	2	-0.27123499	-3.553	-0.22400001	1.006
17	1	3	0.22697	-4.3920002	-0.71499997	1.483
18	1	2	-0.157712	-2.46	-0.92799997	0.68599999
19	1	3	0.211046	-2.461	-1.9809999	0.91799998
20	1	4	0.75014102	0.102	-2.4460001	0.30599999
21	1	5	-0.20847601	-0.84500003	-3.3429999	-0.161
22	1	5	-0.20847601	-0.050000001	-2.3150001	1.677
23	1	5	-0.20847601	1.351	-2.9979999	0.07
24	1	4	0.75014102	-0.153	-1.289	-1.948
25	1	5	-0.20847601	-1.406	-1.7970001	-2.256
26	1	5	-0.20847601	0.0020000001	-0.101	-2.6429999
27	1	5	-0.20847601	0.78799999	-2.1960001	-2.4059999
28	1	2	-0.156856	2.4170001	-0.107	-0.94400001
29	1	3	0.211045	2.4130001	-0.53299999	-1.9349999
30	1	2	-0.319332	3.513	0.55900002	-0.56199998
31	1	3	0.22706001	4.3499999	0.65399998	-1.242
32	1	2	0.628434	-4.8629999	2.9590001	0.861
33	1	6	-0.49536699	-3.865	3.6500001	0.75199997
34	1	1	-0.021493999	5.5190001	1.97	0.56
35	1	2	0.27856001	5.4000001	2.6689999	-0.63800001
36	1	2	-0.319332	6.461	2.802	-1.439
37	1	3	0.22706001	7.4130001	2.3710001	-1.158
38	1	2	-0.156856	6.3439999	3.5420001	-2.711
39	1	3	0.211046	7.2340002	3.641	-3.3199999
40	1	2	-0.085545003	5.165	4.0749998	-3.1099999
41	1	4	-0.26585999	5.092	4.8829999	-4.4320002
42	1	2	-0.085545003	5.8140001	4.0960002	-5.5560002
43	1	2	-0.117903	5.5560002	2.777	-5.7270002
44	1	3	0.211046	4.8769999	2.253	-5.066
45	1	2	-0.411268	6.191	2.0050001	-6.8130002
46	1	3	0.232361	5.9770002	0.94800001	-6.9070001
47	1	2	0.432668	7.0209999	2.609	-7.6719999
48	1	7	-0.64881599	7.6290002	1.895	-8.7030001
49	1	8	0.43593299	7.4660001	0.903	-8.8339996
50	1	2	-0.411268	7.2930002	4.0500002	-7.5300002
51	1	3	0.232361	7.954	4.5419998	-8.2329998
52	1	2	-0.117903	6.7249999	4.7550001	-6.5440001
53	1	3	0.211046	6.9520001	5.8080001	-6.4899998
54	1	4	0.75014102	5.7540002	6.2729998	-4.1430001
55	1	5	-0.20847601	5.5229998	7.1700001	-5.1729999
56	1	5	-0.20847601	7.1220002	6.1420002	-3.9679999
57	1	5	-0.20847601	5.2319999	6.8239999	-2.984
58	1	4	0.75014102	3.6229999	5.1160002	-4.921
59	1	5	-0.20847601	3.619	5.6240001	-6.21
60	1	5	-0.20847601	2.911	3.928	-4.9330001
61	1	5	-0.20847601	2.957	6.0229998	-4.1129999
62	1	2	-0.156856	3.9949999	3.934	-2.1860001
63	1	3	0.211045	3.033	4.3600001	-2.4230001
64	1	2	-0.319332	4.1090002	3.2679999	-1.031
65	1	3	0.22706001	3.2509999	3.1730001	-0.377
66	1	2	0.46767199	-5.8460002	3.405	0.75400001
67	1	6	-0.57051599	-6.8410001	2.7	0.77499998
68	1	9	-0.082284003	-6.0040002	5.1399999	0.55400002

Bonds

1	1	1	2
2	2	1	34
3	3	2	3
4	3	2	30
5	4	3	4
6	3	3	5
7	4	5	6
8	3	5	7
9	5	7	8
10	3	7	28
11	5	8	9
12	6	8	20
13	6	8	24
14	3	9	10
15	3	9	18
16	4	10	11
17	3	10	12
18	4	12	13
19	3	12	14
20	1	14	15
21	3	14	16
22	7	15	32
23	4	16	17
24	3	16	18
25	4	18	19
26	8	20	21
27	8	20	22
28	8	20	23
29	8	24	25
30	8	24	26
31	8	24	27
32	4	28	29
33	3	28	30
34	4	30	31
35	9	32	33
36	10	32	66
37	1	34	35
38	3	35	36
39	3	35	64
40	4	36	37
41	3	36	38
42	4	38	39
43	3	38	40
44	5	40	41
45	3	40	62
46	5	41	42
47	6	41	54
48	6	41	58
49	3	42	43
50	3	42	52
51	4	43	44
52	3	43	45
53	4	45	46
54	3	45	47
55	11	47	48
56	3	47	50
57	12	48	49
58	4	50	51
59	3	50	52
60	4	52	53
61	8	54	55
62	8	54	56
63	8	54	57
64	8	58	59
65	8	58	60
66	8	58	61
67	4	62	63
68	3	62	64
69	4	64	65
70	9	66	67
71	13	66	68

Angles

1	4	41	58	59
2	1	41	42	52
3	4	60	58	61
4	1	34	35	36
5	1	2	30	28
6	3	39	38	40
7	1	1	2	3
8	1	8	9	10
9	4	41	58	61
10	4	59	58	61
11	4	8	24	27
12	4	41	54	56
13	4	42	41	54
14	3	51	50	52
15	3	16	18	19
16	1	42	43	45
17	4	20	8	24
18	4	26	24	27
19	3	46	45	47
20	3	28	30	31
21	4	22	20	23
22	4	25	24	27
23	4	7	8	20
24	3	2	3	4
25	3	9	10	11
26	3	42	52	53
27	1	32	66	67
28	1	40	62	64
29	2	47	48	49
30	1	8	9	18
31	3	62	64	65
32	3	6	5	7
33	1	15	32	66
34	2	14	15	32
35	4	40	41	54
36	1	43	42	52
37	4	7	8	24
38	1	36	35	64
39	3	42	43	44
40	3	4	3	5
41	3	2	30	31
42	1	48	47	50
43	3	40	62	63
44	1	12	14	15
45	3	13	12	14
46	1	41	42	43
47	4	8	20	23
48	4	21	20	22
49	4	7	8	9
50	1	3	2	30
51	1	2	3	5
52	2	1	34	35
53	1	8	7	28
54	1	47	50	52
55	4	42	41	58
56	3	7	28	29
57	1	34	35	64
58	2	2	1	34
59	1	41	40	62
60	1	45	47	48
61	1	32	66	68
62	1	38	40	62
63	4	41	58	60
64	1	43	45	47
65	3	47	50	51
66	1	9	18	16
67	4	41	54	55
68	4	8	24	26
69	3	63	62	64
70	1	7	28	30
71	4	40	41	58
72	4	8	24	25
73	1	33	32	66
74	1	38	40	41
75	1	5	7	8
76	3	44	43	45
77	1	67	66	68
78	4	8	20	21
79	1	3	5	7
80	4	25	24	26
81	4	54	41	58
82	1	12	14	16
83	3	35	36	37
84	3	3	5	6
85	4	9	8	20
86	1	42	52	50
87	3	36	38	39
88	3	50	52	53
89	1	10	12	14
90	4	59	58	60
91	3	17	16	18
92	3	10	12	13
93	4	40	41	42
94	3	29	28	30
95	3	43	45	46
96	1	14	16	18
97	1	36	38	40
98	4	56	54	57
99	1	45	47	50
100	3	9	18	19
101	4	41	54	57
102	1	35	64	62
103	4	55	54	56
104	4	8	20	22
105	3	11	10	12
106	1	1	2	30
107	5	15	32	33
108	1	35	36	38
109	3	14	16	17
110	1	5	7	28
111	4	9	8	24
112	3	35	64	65
113	1	9	10	12
114	3	37	36	38
115	1	10	9	18
116	4	55	54	57
117	1	15	14	16
118	4	21	20	23

Dihedrals

1	4	7	8	9	10
2	5	22	20	8	24
3	1	34	35	64	65
4	1	41	42	52	53
5	5	7	8	24	27
6	7	15	32	66	67
7	1	4	3	5	7
8	1	8	9	10	11
9	4	9	8	7	28
10	1	45	43	42	52
11	1	36	38	40	62
12	1	39	38	40	62
13	4	40	41	42	43
14	1	8	7	28	29
15	1	1	2	30	31
16	5	42	41	58	59
17	1	42	43	45	46
18	5	9	8	24	27
19	7	15	32	66	68
20	1	37	36	38	39
21	1	1	2	3	4
22	2	1	34	35	36
23	5	20	8	24	27
24	1	40	62	64	65
25	7	33	32	66	67
26	4	7	8	9	18
27	5	42	41	58	61
28	1	13	12	14	16
29	1	46	45	47	50
30	1	43	45	47	50
31	1	48	47	50	52
32	5	42	41	54	56
33	2	30	2	1	34
34	1	6	5	7	28
35	5	9	8	20	23
36	1	39	38	40	41
37	4	43	42	41	58
38	4	5	7	8	20
39	1	8	7	28	30
40	4	52	42	41	58
41	5	42	41	54	57
42	1	48	47	50	51
43	1	9	10	12	14
44	1	9	10	12	13
45	5	40	41	54	55
46	1	3	5	7	8
47	1	4	3	5	6
48	4	38	40	41	54
49	1	14	16	18	19
50	1	29	28	30	31
51	1	7	28	30	31
52	1	10	9	18	16
53	1	41	42	52	50
54	1	37	36	35	64
55	4	5	7	8	24
56	1	3	2	30	28
57	5	7	8	20	23
58	4	10	9	8	24
59	5	23	20	8	24
60	1	42	52	50	51
61	3	2	1	34	35
62	5	57	54	41	58
63	5	9	8	24	26
64	1	38	40	62	63
65	4	18	9	8	20
66	1	1	2	3	5
67	1	41	42	43	45
68	1	63	62	64	65
69	1	8	9	18	16
70	1	9	18	16	14
71	5	9	8	24	25
72	1	36	38	40	41
73	5	40	41	58	60
74	1	8	9	18	19
75	5	21	20	8	24
76	1	41	40	62	63
77	1	38	40	62	64
78	2	14	15	32	33
79	4	5	7	8	9
80	1	3	5	7	28
81	7	33	32	66	68
82	1	43	42	52	50
83	5	40	41	54	57
84	1	41	40	62	64
85	1	34	35	36	37
86	1	35	64	62	63
87	1	17	16	18	19
88	1	5	7	28	29
89	4	58	41	40	62
90	4	52	42	41	54
91	5	55	54	41	58
92	1	46	45	47	48
93	1	43	45	47	48
94	5	56	54	41	58
95	8	49	48	47	50
96	5	7	8	24	26
97	2	16	14	15	32
98	1	38	36	35	64
99	2	12	14	15	32
100	5	7	8	24	25
101	1	10	9	18	19
102	1	47	50	52	53
103	5	40	41	58	59
104	4	40	41	42	52
105	2	1	34	35	64
106	1	35	36	38	39
107	1	44	43	45	47
108	1	41	42	43	44
109	1	11	10	12	13
110	1	2	3	5	7
111	5	9	8	20	22
112	1	34	35	64	62
113	1	34	35	36	38
114	5	40	41	58	61
115	1	3	2	30	31
116	8	45	47	48	49
117	1	2	3	5	6
118	5	54	41	58	60
119	1	15	14	16	18
120	1	12	10	9	18
121	1	5	7	28	30
122	1	35	36	38	40
123	1	36	35	64	62
124	1	12	14	16	18
125	5	20	8	24	26
126	1	6	5	7	8
127	5	40	41	54	56
128	1	51	50	52	53
129	1	4	3	2	30
130	4	38	40	41	58
131	5	20	8	24	25
132	1	1	2	30	28
133	5	42	41	54	55
134	1	36	35	64	65
135	5	9	8	20	21
136	1	42	52	50	47
137	1	15	14	16	17
138	1	45	47	50	52
139	4	24	8	7	28
140	1	12	14	16	17
141	1	8	9	10	12
142	4	43	42	41	54
143	6	14	15	32	66
144	1	42	43	45	47
145	1	13	12	14	15
146	4	20	8	7	28
147	1	11	10	9	18
148	1	2	30	28	7
149	5	7	8	20	22
150	4	18	9	8	24
151	1	45	47	50	51
152	1	5	3	2	30
153	1	9	18	16	17
154	5	54	41	58	59
155	1	10	12	14	15
156	1	2	30	28	29
157	2	3	2	1	34
158	1	43	42	52	53
159	1	44	43	42	52
160	4	38	40	41	42
161	1	35	64	62	40
162	1	37	36	38	40
163	1	11	10	12	14
164	4	42	41	40	62
165	5	7	8	20	21
166	1	44	43	45	46
167	5	42	41	58	60
168	5	54	41	58	61
169	1	10	12	14	16
170	4	54	41	40	62
171	4	10	9	8	20

Impropers

3	1	42	41	43	52
6	1	52	53	42	50
7	1	16	18	14	17
8	1	3	5	2	4
10	1	62	40	63	64
20	1	66	67	68	32
22	1	10	12	9	11
27	1	30	28	31	2
40	1	10	9	11	12
46	1	52	50	53	42
61	1	3	2	4	5
63	1	12	10	13	14
69	1	16	14	17	18
70	1	42	43	52	41
75	1	10	11	12	9
76	1	5	7	3	6
85	1	14	16	12	15
86	1	18	9	16	19
88	2	32	66	15	33
90	1	28	29	30	7
91	1	5	6	7	3
102	1	64	35	62	65
105	1	2	30	1	3
106	1	50	47	51	52
107	1	3	4	5	2
113	1	47	50	45	48
116	1	12	14	10	13
120	1	47	48	50	45
123	1	40	62	38	41
127	1	18	16	19	9
129	1	45	47	43	46
131	1	7	28	5	8
132	1	52	42	50	53
133	1	35	64	34	36
137	2	32	33	66	15
139	1	38	40	36	39
148	1	43	45	42	44
155	1	42	52	41	43
156	1	36	35	37	38
158	1	64	65	35	62
159	1	5	3	6	7
168	1	45	43	46	47
169	1	36	37	38	35
170	1	7	5	8	28
174	1	66	68	32	67
177	1	36	38	35	37
178	1	66	32	67	68
187	1	2	3	30	1
188	1	12	13	14	10
190	1	43	44	45	42
193	1	14	12	15	16
195	1	40	41	62	38
197	1	47	45	48	50
199	1	9	18	8	10
202	1	35	34	36	64
204	1	50	52	47	51
211	1	30	2	28	31
212	1	9	8	10	18
215	1	18	19	9	16
221	1	62	64	40	63
223	1	2	1	3	30
224	1	7	8	28	5
228	1	30	31	2	28
234	1	16	17	18	14
235	1	40	38	41	62
236	1	35	36	64	34
243	1	62	63	64	40
246	1	64	62	65	35
259	1	14	15	16	12
263	1	50	51	52	47
271	1	38	39	40	36
272	1	38	36	39	40
273	1	28	7	29	30
274	1	43	42	44	45
282	1	45	46	47	43
284	1	9	10	18	8
286	2	32	15	33	66
296	1	28	30	7	29
