Title

75 atoms
74 bonds
137 angles
233 dihedrals
12 impropers

8 atom types
11 bond types
5 angle types
27 dihedral types
2 improper types
-4.046999931 95.95300007 xlo xhi
-8.73900032 91.26099968 ylo yhi
-5.56799984 94.43200016 zlo zhi
0.0 0.0 0.0 xy xz yz

Masses

1	15.99943
2	12.01078
3	1.007947
4	1.007947
5	12.01078
6	15.99943
7	15.99943
8	1.007947


Pair Coeffs

1	0.16846514	3.0251065
2	0.10884061	3.3795318
3	0.016409246	2.5832257
4	0.015779483	2.6445434
5	0.086879315	3.4806469
6	0.2102061	3.0398122
7	0.20947353	2.99716
8	1.2326e-05	0.53453923

Bond Coeffs

1 harmonic	366.7408841747	1.425895053732
2 harmonic	300.03137914615	1.451203938761
3 harmonic	264.62148576755	1.52190126495
4 harmonic	370.04670688625	1.093899492634
5 harmonic	301.15400723785	1.345741232799
6 harmonic	582.698766451	1.225198386222
7 harmonic	329.44145381095	1.523435958334
8 harmonic	279.1350963404	1.454628925034
9 harmonic	329.96998057905	1.427343958716
10 harmonic	543.5267831885	0.9716763312559
11 harmonic	385.7604595587	1.369745182308


Angle Coeffs

1 harmonic	53.20531626545	116.5475862634
2 harmonic	65.09061609600001	110.3538806181
3 harmonic	201.41175231035	127.4691416191
4 harmonic	57.8982893754	126.8062420451
5 harmonic	48.776492647595	115.6030999533


Dihedral Coeffs

1 fourier 1	0.1155372516788	3	0
2 fourier 1	0.1115525666802	3	0
3 fourier 1	0.3432490222662	1	0
4 fourier 1	0.0473758381877	3	0
5 fourier 1	0.457973137376	1	0
6 fourier 1	0.09223874044423	3	0
7 fourier 1	0.3159935921949	2	180
8 fourier 1	0.3247796806857	1	180
9 fourier 1	0.1040663847541	3	0
10 fourier 1	0.1918272375143	3	0
11 fourier 1	0.9202179876409	1	180
12 fourier 1	1.163809172478	2	180
13 fourier 1	0.1679186987369	1	180
14 fourier 1	2.779853741805	2	180
15 fourier 1	0.02664938770063	3	0
16 fourier 1	0.1911926717192	3	0
17 fourier 1	-0.3703352413219	2	0
18 fourier 1	0.4541676554336	1	0
19 fourier 1	0.1489710476446	2	0
20 fourier 1	0.02960027280666	3	180
21 fourier 1	0.9974165607242	2	180
22 fourier 1	0.3445382149273	3	0
23 fourier 1	0.1364556373303	1	0
24 fourier 1	0.3026390167484	3	0
25 fourier 1	2.687457892086	2	180
26 fourier 1	2.772607909663	2	180
27 fourier 1	0.09692684957115	1	0


Improper Coeffs

1 3.5	-1	2
2 0.3666666666666667	-1	2


Atoms

1	1	1	-0.17860501	-3.8510001	0.213	1.086
2	1	2	0.033266	-3.0139999	-0.426	0.162
3	1	2	-0.146835	-1.5880001	0.119	0.273
4	1	2	-0.14190701	-0.64399999	-0.602	-0.70099998
5	1	2	-0.143124	0.76700002	0.0049999999	-0.71600002
6	1	2	-0.140681	1.551	-0.289	0.574
7	1	2	0.135144	3.0009999	0.18799999	0.47499999
8	1	1	-0.49453801	3.043	1.5829999	0.35100001
9	1	3	0.079108	3.497	-0.28999999	-0.40000001
10	1	3	0.079108	3.5420001	-0.119	1.398
11	1	4	0.086064003	1.0700001	0.21600001	1.439
12	1	4	0.086064003	1.551	-1.3839999	0.76599997
13	1	4	0.082213998	1.318	-0.43200001	-1.577
14	1	4	0.082213998	0.70099998	1.102	-0.88099998
15	1	4	0.082387	-0.58700001	-1.683	-0.44299999
16	1	4	0.082387	-1.061	-0.523	-1.729
17	1	4	0.087081999	-1.597	1.2079999	0.046
18	1	4	0.087081999	-1.2359999	-0.023	1.316
19	1	3	0.078725003	-3.013	-1.515	0.384
20	1	3	0.078725003	-3.405	-0.28600001	-0.87300003
21	1	5	0.76169801	4.0489998	1.835	0.28299999
22	1	6	-0.55495799	4.3590002	2.9360001	-0.14300001
23	1	2	-0.209613	5.1160002	0.86699998	0.69999999
24	1	2	-0.113236	4.5079999	-0.44800001	1.201
25	1	2	-0.092381001	5.6030002	-1.433	1.627
26	1	2	-0.25776201	4.9949999	-2.7479999	2.128
27	1	5	0.51700997	6.0619998	-3.7160001	2.546
28	1	6	-0.68725502	5.7529998	-4.8169999	2.9719999
29	1	4	0.113622	4.3340001	-2.546	2.9990001
30	1	4	0.113622	4.388	-3.211	1.3200001
31	1	4	0.075021997	6.2129998	-0.97799999	2.438
32	1	4	0.075021997	6.2670002	-1.643	0.759
33	1	4	0.083939999	3.8440001	-0.23800001	2.069
34	1	4	0.083939999	3.898	-0.903	0.38999999
35	1	4	0.116871	5.723	1.33	1.508
36	1	4	0.116871	5.777	0.66500002	-0.171
37	1	1	-0.17860501	-4.0469999	1.114	0.71700001
38	1	2	0.033266	-2.8110001	1.7539999	0.546
39	1	2	-0.146835	-2.099	1.209	-0.69499999
40	1	2	-0.141856	-0.76300001	1.9299999	-0.926
41	1	2	-0.137761	0.044	1.323	-2.0840001
42	1	2	-0.168758	-0.57999998	1.6160001	-3.4579999
43	1	2	0.086456999	0.31900001	1.14	-4.5999999
44	1	7	-0.68463898	0.44499999	-0.255	-4.5650001
45	1	8	0.37796101	1.04	-0.49599999	-5.322
46	1	3	0.069054	1.321	1.617	-4.5170002
47	1	3	0.069054	-0.139	1.446	-5.5679998
48	1	4	0.089435004	-1.566	1.1109999	-3.5480001
49	1	4	0.089435004	-0.73900002	2.711	-3.5669999
50	1	4	0.082387	1.066	1.76	-2.0539999
51	1	4	0.082387	0.14300001	0.22499999	-1.937
52	1	4	0.082387	-0.94400001	3.01	-1.118
53	1	4	0.082387	-0.149	1.851	-0.0020000001
54	1	4	0.087081999	-1.9170001	0.12	-0.56
55	1	4	0.087081999	-2.7639999	1.35	-1.574
56	1	3	0.078725003	-2.994	2.8429999	0.41999999
57	1	3	0.078725003	-2.177	1.614	1.451
58	1	5	0.51700997	7.1129999	-3.4519999	2.4749999
59	1	6	-0.68725502	7.6880002	-3.0020001	3.4530001
60	1	2	-0.25776201	7.8410001	-3.6229999	1.176
61	1	2	-0.092381001	8.9449997	-4.678	1.301
62	1	2	-0.110713	9.6719999	-4.875	-0.037999999
63	1	2	-0.219621	10.828	-5.8790002	0.07
64	1	5	0.82383603	10.333	-7.2719998	0.30899999
65	1	6	-0.55641901	9.8760004	-7.9530001	-0.648
66	1	7	-0.66546601	10.349	-7.803	1.595
67	1	8	0.39414999	10.005	-8.7390003	1.774
68	1	4	0.117895	11.517	-5.579	0.889
69	1	4	0.117895	11.409	-5.8629999	-0.87699997
70	1	4	0.083939999	10.09	-3.8989999	-0.368
71	1	4	0.083939999	8.9519997	-5.2160001	-0.81400001
72	1	4	0.075021997	9.6780005	-4.3559999	2.073
73	1	4	0.075021997	8.4919996	-5.6409998	1.624
74	1	4	0.113622	7.1139998	-3.938	0.396
75	1	4	0.113622	8.2779999	-2.6470001	0.87400001

Bonds

1	1	1	2
2	2	1	37
3	3	2	3
4	4	2	19
5	4	2	20
6	3	3	4
7	4	3	17
8	4	3	18
9	3	4	5
10	4	4	15
11	4	4	16
12	3	5	6
13	4	5	13
14	4	5	14
15	3	6	7
16	4	6	11
17	4	6	12
18	1	7	8
19	4	7	9
20	4	7	10
21	5	8	21
22	6	21	22
23	7	21	23
24	3	23	24
25	4	23	35
26	4	23	36
27	3	24	25
28	4	24	33
29	4	24	34
30	3	25	26
31	4	25	31
32	4	25	32
33	7	26	27
34	4	26	29
35	4	26	30
36	6	27	28
37	8	27	58
38	1	37	38
39	3	38	39
40	4	38	56
41	4	38	57
42	3	39	40
43	4	39	54
44	4	39	55
45	3	40	41
46	4	40	52
47	4	40	53
48	3	41	42
49	4	41	50
50	4	41	51
51	3	42	43
52	4	42	48
53	4	42	49
54	9	43	44
55	4	43	46
56	4	43	47
57	10	44	45
58	6	58	59
59	7	58	60
60	3	60	61
61	4	60	74
62	4	60	75
63	3	61	62
64	4	61	72
65	4	61	73
66	3	62	63
67	4	62	70
68	4	62	71
69	7	63	64
70	4	63	68
71	4	63	69
72	6	64	65
73	11	64	66
74	10	66	67

Angles

1	5	9	7	10
2	1	4	5	6
3	1	24	23	36
4	1	64	63	69
5	1	42	43	46
6	5	48	42	49
7	1	3	4	15
8	1	44	43	46
9	1	5	4	16
10	1	39	40	52
11	4	63	64	66
12	5	31	25	32
13	5	13	5	14
14	1	6	7	8
15	1	6	5	14
16	5	50	41	51
17	1	8	7	10
18	1	41	42	43
19	1	8	7	9
20	1	23	24	34
21	1	24	25	26
22	4	26	27	28
23	1	40	41	51
24	1	62	63	69
25	1	60	61	62
26	4	8	21	23
27	1	27	26	30
28	1	37	38	57
29	5	74	60	75
30	1	2	3	4
31	5	54	39	55
32	3	65	64	66
33	2	2	1	37
34	5	15	4	16
35	1	5	6	11
36	1	40	39	54
37	1	62	61	72
38	1	61	60	74
39	1	21	23	35
40	5	72	61	73
41	5	46	43	47
42	1	42	41	50
43	1	21	23	24
44	1	39	40	41
45	1	61	62	70
46	4	22	21	23
47	1	4	5	13
48	1	41	40	52
49	1	63	62	70
50	1	58	60	74
51	1	2	3	17
52	5	11	6	12
53	1	40	39	55
54	1	1	2	3
55	1	62	61	73
56	1	42	43	47
57	1	41	42	48
58	1	1	2	19
59	1	24	25	31
60	1	61	60	75
61	1	3	4	16
62	1	44	43	47
63	1	42	41	51
64	4	26	27	58
65	5	35	23	36
66	1	39	40	53
67	1	38	39	54
68	4	27	58	59
69	1	6	7	10
70	1	6	7	9
71	1	61	62	71
72	1	41	40	53
73	1	26	25	31
74	1	58	60	75
75	1	5	6	7
76	2	43	44	45
77	1	41	42	49
78	1	1	2	20
79	5	33	24	34
80	1	38	39	55
81	4	27	58	60
82	1	3	2	19
83	5	68	63	69
84	1	42	43	44
85	1	61	62	63
86	1	26	25	32
87	1	39	38	56
88	1	23	24	25
89	1	25	26	29
90	5	52	40	53
91	1	25	24	33
92	1	7	6	11
93	1	5	6	12
94	1	43	42	48
95	1	3	2	20
96	4	28	27	58
97	1	37	38	39
98	5	29	26	30
99	1	39	38	57
100	1	21	23	36
101	5	56	38	57
102	1	3	4	5
103	1	25	26	30
104	1	25	24	34
105	2	1	37	38
106	2	64	66	67
107	5	17	3	18
108	1	6	5	13
109	1	4	5	14
110	1	23	24	33
111	1	63	62	71
112	1	2	3	18
113	1	43	42	49
114	1	60	61	72
115	1	40	41	50
116	1	62	63	68
117	1	24	25	32
118	3	8	21	22
119	1	27	26	29
120	1	37	38	56
121	5	70	62	71
122	4	59	58	60
123	1	62	63	64
124	1	60	61	73
125	1	25	26	27
126	1	4	3	17
127	1	38	39	40
128	1	40	41	42
129	1	58	60	61
130	1	24	23	35
131	1	64	63	68
132	2	7	8	21
133	1	5	4	15
134	5	19	2	20
135	4	63	64	65
136	1	4	3	18
137	1	7	6	12

Dihedrals

1	21	28	27	58	60
2	16	12	6	5	14
3	9	39	40	41	50
4	17	59	58	60	61
5	9	62	61	60	75
6	18	65	64	63	68
6	19	65	64	63	68
6	20	65	64	63	68
7	9	6	5	4	15
8	9	25	24	23	35
9	16	11	6	5	14
10	16	72	61	60	74
11	16	54	39	38	56
12	15	8	21	23	36
13	15	27	58	60	61
14	16	73	61	60	75
15	9	41	42	43	47
16	4	20	2	1	37
17	25	63	64	66	67
18	16	33	24	23	36
19	1	21	23	24	25
20	16	55	39	38	56
21	9	60	61	62	71
22	26	65	64	66	67
22	27	65	64	66	67
23	9	2	3	4	16
24	4	1	37	38	39
25	6	40	41	42	43
25	7	40	41	42	43
25	8	40	41	42	43
26	1	58	60	61	72
27	2	1	2	3	17
27	3	1	2	3	17
28	5	2	1	37	38
29	16	53	40	39	55
30	9	61	62	63	68
31	9	25	24	23	36
32	4	9	7	8	21
33	2	37	38	39	55
33	3	37	38	39	55
34	6	39	40	41	42
34	7	39	40	41	42
34	8	39	40	41	42
35	16	72	61	60	75
36	16	71	62	61	72
37	2	44	43	42	49
37	3	44	43	42	49
38	4	10	7	8	21
39	16	17	3	2	20
40	16	15	4	3	17
41	1	61	62	63	64
42	16	46	43	42	49
43	2	8	7	6	11
43	3	8	7	6	11
44	15	25	26	27	58
45	18	59	58	60	74
45	19	59	58	60	74
45	20	59	58	60	74
46	1	37	38	39	40
47	9	26	25	24	34
48	16	50	41	40	52
49	1	41	42	43	44
50	9	42	41	40	52
51	1	58	60	61	73
52	1	21	23	24	33
53	16	48	42	41	50
54	15	27	58	60	74
55	12	7	8	21	22
55	13	7	8	21	22
56	9	24	25	26	30
57	18	28	27	26	29
57	19	28	27	26	29
57	20	28	27	26	29
58	16	32	25	24	33
59	16	29	26	25	32
60	16	31	25	24	33
61	18	59	58	60	75
61	19	59	58	60	75
61	20	59	58	60	75
62	16	69	63	62	71
63	16	50	41	40	53
64	17	62	63	64	65
65	1	64	63	62	71
66	1	27	26	25	32
67	15	30	26	27	58
68	16	49	42	41	50
69	9	3	4	5	14
70	6	23	24	25	26
70	7	23	24	25	26
70	8	23	24	25	26
71	9	4	5	6	11
72	14	7	8	21	23
73	15	66	64	63	68
74	16	30	26	25	31
75	9	7	6	5	13
76	9	23	24	25	31
77	16	32	25	24	34
78	6	2	3	4	5
78	7	2	3	4	5
78	8	2	3	4	5
79	9	39	40	41	51
80	18	65	64	63	69
80	19	65	64	63	69
80	20	65	64	63	69
81	9	6	5	4	16
82	16	54	39	38	57
83	1	24	25	26	27
84	9	40	41	42	48
85	9	5	4	3	17
86	9	4	5	6	12
87	16	55	39	38	57
88	16	13	5	4	15
89	16	30	26	25	32
90	2	1	2	3	18
90	3	1	2	3	18
91	22	42	43	44	45
91	23	42	43	44	45
92	9	61	62	63	69
93	1	58	60	61	62
94	4	1	37	38	56
95	9	43	42	41	50
96	9	40	41	42	49
97	16	71	62	61	73
98	1	5	6	7	8
99	9	41	40	39	54
100	9	5	4	3	18
101	16	51	41	40	52
102	16	15	4	3	18
103	9	4	3	2	19
104	6	4	5	6	7
104	7	4	5	6	7
104	8	4	5	6	7
105	2	8	7	6	12
105	3	8	7	6	12
106	24	45	44	43	46
107	9	38	39	40	52
108	9	42	41	40	53
109	1	21	23	24	34
110	21	26	27	58	59
111	16	48	42	41	51
112	4	1	37	38	57
113	15	27	58	60	75
114	9	43	42	41	51
115	16	68	63	62	70
116	10	6	7	8	21
116	11	6	7	8	21
117	6	3	4	5	6
117	7	3	4	5	6
117	8	3	4	5	6
118	17	25	26	27	28
119	18	28	27	26	30
119	19	28	27	26	30
119	20	28	27	26	30
120	9	5	6	7	10
121	9	5	6	7	9
122	9	41	40	39	55
123	16	12	6	5	13
124	16	18	3	2	19
125	9	4	3	2	20
126	16	16	4	3	17
127	9	40	39	38	56
128	9	62	61	60	74
129	16	31	25	24	34
130	4	19	2	1	37
131	15	62	63	64	66
132	18	22	21	23	35
132	19	22	21	23	35
132	20	22	21	23	35
133	9	38	39	40	53
134	15	8	21	23	24
135	9	41	42	43	46
136	24	45	44	43	47
137	16	49	42	41	51
138	17	22	21	23	24
139	21	26	27	58	60
140	16	52	40	39	54
141	16	33	24	23	35
142	9	60	61	62	70
143	15	66	64	63	69
144	16	14	5	4	15
145	9	2	3	4	15
146	9	7	6	5	14
147	9	23	24	25	32
148	16	18	3	2	20
149	9	40	39	38	57
150	16	16	4	3	18
151	16	53	40	39	54
152	2	37	38	39	54
152	3	37	38	39	54
153	16	34	24	23	35
154	18	22	21	23	36
154	19	22	21	23	36
154	20	22	21	23	36
155	16	9	7	6	11
156	16	47	43	42	48
157	2	44	43	42	48
157	3	44	43	42	48
158	9	63	62	61	72
159	16	17	3	2	19
160	16	52	40	39	55
161	16	70	62	61	72
162	16	46	43	42	48
163	16	14	5	4	16
164	16	13	5	4	16
165	16	10	7	6	11
166	9	26	25	24	33
167	4	3	2	1	37
168	6	38	39	40	41
168	7	38	39	40	41
168	8	38	39	40	41
169	15	29	26	27	58
170	16	34	24	23	36
171	9	24	25	26	29
172	16	9	7	6	12
173	16	47	43	42	49
174	21	28	27	58	59
175	16	51	41	40	53
176	9	63	62	61	73
177	1	1	2	3	4
178	16	70	62	61	73
179	16	11	6	5	13
180	16	29	26	25	31
181	15	8	21	23	35
182	6	60	61	62	63
182	7	60	61	62	63
182	8	60	61	62	63
183	16	10	7	6	12
184	16	69	63	62	70
185	16	73	61	60	74
186	1	64	63	62	70
187	1	27	26	25	31
188	9	3	4	5	13
189	16	68	63	62	71

Impropers

76	2	58	27	59	60
101	2	27	58	26	28
114	1	64	66	63	65
119	1	21	22	23	8
150	2	27	26	28	58
163	1	64	65	66	63
204	2	27	28	58	26
246	1	21	23	8	22
282	1	21	8	22	23
337	2	58	60	27	59
364	1	64	63	65	66
446	2	58	59	60	27
