Title

504 atoms
539 bonds
1094 angles
2875 dihedrals
102 impropers

11 atom types
12 bond types
9 angle types
29 dihedral types
2 improper types
-19.15299988 80.84700012 xlo xhi
-31.33099937 68.66900063 ylo yhi
-22.28199959 77.71800041 zlo zhi
0.0 0.0 0.0 xy xz yz

Masses

1	12.01078
2	15.99943
3	14.00672
4	12.01078
5	1.007947
6	1.007947
7	1.007947
8	15.99943
9	15.99943
10	1.007947
11	12.01078


Pair Coeffs

1	0.086879315	3.4806469
2	0.2102061	3.0398122
3	0.16769152	3.206876
4	0.10884061	3.3795318
5	0.014090815	1.1034277
6	0.016409246	2.5832257
7	0.015779483	2.6445434
8	0.16846514	3.0251065
9	0.20947353	2.99716
10	1.2326e-05	0.53453923
11	0.21	3.3996695

Bond Coeffs

1 harmonic	582.698766451	1.225198386222
2 harmonic	492.76746816345	1.381897776683
3 harmonic	301.15400723785	1.345741232799
4 harmonic	352.0565580496	1.450098586273
5 harmonic	505.144496193	1.019481865027
6 harmonic	264.62148576755	1.52190126495
7 harmonic	370.04670688625	1.093899492634
8 harmonic	366.7408841747	1.425895053732
9 harmonic	329.96998057905	1.427343958716
10 harmonic	543.5267831885	0.9716763312559
11 harmonic	366.34047229585	1.464762957261
12 harmonic	602.81384337	1.196112346392


Angle Coeffs

1 harmonic	55.42182150775	117.3465570514
2 harmonic	63.44422595415	115.5071327674
3 harmonic	65.09061609600001	110.3538806181
4 harmonic	57.8982893754	126.8062420451
5 harmonic	201.41175231035	127.4691416191
6 harmonic	53.20531626545	116.5475862634
7 harmonic	48.776492647595	115.6030999533
8 harmonic	55.07882548015	112.8714009681
9 harmonic	33.56981613361	180


Dihedral Coeffs

1 fourier 1	-0.1488678166443	4	180
2 fourier 1	-0.1230328948768	3	180
3 fourier 1	0.2939295466901	2	0
4 fourier 1	-0.3024127022865	1	0
5 fourier 1	0.182238503271	2	0
6 fourier 1	0.02972342374561	3	0
7 fourier 1	0.1918272375143	3	0
8 fourier 1	0.9202179876409	1	180
9 fourier 1	0.0473758381877	3	0
10 fourier 1	1.809047390003	2	180
11 fourier 1	-0.04816277792592	1	0
12 fourier 1	0.4860993122944	2	180
13 fourier 1	0.8916986138746	1	0
14 fourier 1	1.163809172478	2	180
15 fourier 1	0.1679186987369	1	180
16 fourier 1	2.779853741805	2	180
17 fourier 1	0.1155372516788	3	0
18 fourier 1	0.09223874044423	3	0
19 fourier 1	0.3159935921949	2	180
20 fourier 1	0.3247796806857	1	180
21 fourier 1	0.1040663847541	3	0
22 fourier 1	0.1911926717192	3	0
23 fourier 1	0.1115525666802	3	0
24 fourier 1	0.3432490222662	1	0
25 fourier 1	0.3445382149273	3	0
26 fourier 1	0.1364556373303	1	0
27 fourier 1	0.3026390167484	3	0
28 fourier 1	-1.382973039546	1	0
29 fourier 1	0	1	0


Improper Coeffs

1 0.3333333333333333	-1	2
2 3.5	-1	2


Atoms

1	4	1	0.79802501	3.95	-0.26800001	0.25600001
2	4	2	-0.64137	3.8329999	-1.424	0.74199998
3	4	3	-0.51733798	2.8139999	0.43000001	-0.26499999
4	4	4	0.085947998	1.4630001	-0.139	-0.248
5	4	4	-0.181328	0.55500001	0.61400002	-1.238
6	4	4	-0.181328	-0.87699997	0.064999998	-1.2029999
7	4	4	0.085947998	-1.4630001	0.139	0.219
8	4	3	-0.51733798	-2.8139999	-0.43000001	0.237
9	4	1	0.79802501	-3.95	0.26800001	-0.28400001
10	4	2	-0.64137	-3.8329999	1.424	-0.76999998
11	4	4	-0.181328	-0.55500001	-0.61400002	1.21
12	4	4	-0.181328	0.87699997	-0.064999998	1.174
13	4	5	0.30605501	2.9809999	1.365	-0.70200002
14	4	6	0.034455001	1.516	-1.204	-0.56900001
15	4	7	0.086618997	0.53799999	1.698	-0.991
16	4	7	0.086618997	0.95899999	0.50300002	-2.2679999
17	4	7	0.086618997	-0.88	-0.99000001	-1.558
18	4	7	0.086618997	-1.5039999	0.66000003	-1.901
19	4	6	0.034455001	-1.516	1.204	0.54000002
20	4	5	0.30605501	-2.9809999	-1.365	0.67400002
21	4	7	0.086618997	-0.95899999	-0.50300002	2.2390001
22	4	7	0.086618997	-0.53799999	-1.698	0.96200001
23	4	7	0.086618997	1.5039999	-0.66000003	1.872
24	4	7	0.086618997	0.88	0.99000001	1.529
25	12	8	-0.50257099	-4.8850002	-0.18000001	-0.25600001
26	12	4	0.141238	-5.757	0.65200001	-0.97500002
27	12	4	-0.072112001	-5.5999999	0.40599999	-2.487
28	12	4	-0.162728	-6.3260002	-0.82499999	-3.05
29	12	4	-0.107042	-6.8759999	-0.322	-4.4109998
30	12	4	-0.143328	-5.8540001	0.74699998	-4.7690001
31	12	4	-0.096162997	-6.0349998	1.52	-3.4679999
32	12	4	-0.073068999	-7.573	1.8049999	-3.5450001
33	12	4	-0.16597	-8.3999996	1.978	-2.2590001
34	12	4	-0.18542001	-9.2550001	0.71399999	-2.0929999
35	12	4	-0.065761	-9.382	0.12899999	-3.4990001
36	12	4	0.140614	-9.7770004	-1.3609999	-3.6129999
37	12	8	-0.50257099	-9.2290001	-2.141	-2.5880001
38	12	4	-0.067475997	-8.1300001	0.57700002	-4.2709999
39	12	6	0.076350003	-6.776	0.42199999	-0.62599999
40	12	6	0.076350003	-5.5409999	1.72	-0.741
41	12	7	0.107674	-4.5040002	0.26199999	-2.6440001
42	12	7	0.105803	-5.6009998	-1.652	-3.2179999
43	12	7	0.105803	-7.1030002	-1.1900001	-2.365
44	12	7	0.110408	-6.9819999	-1.12	-5.177
45	12	7	0.100203	-6.1230001	1.342	-5.6739998
46	12	7	0.100203	-4.8280001	0.336	-4.921
47	12	7	0.121673	-5.4099998	2.437	-3.405
48	12	7	0.116669	-7.7220001	2.707	-4.1820002
49	12	7	0.092949003	-9.0930004	2.836	-2.4070001
50	12	7	0.092949003	-7.8000002	2.23	-1.368
51	12	7	0.098591	-10.255	0.96700001	-1.679
52	12	7	0.098591	-8.7770004	0.0020000001	-1.397
53	12	7	0.107402	-10.225	0.68800002	-3.97
54	12	6	0.076350003	-9.4630003	-1.757	-4.605
55	12	6	0.076350003	-10.886	-1.437	-3.5569999
56	12	7	0.128319	-8.4530001	0.86199999	-5.3010001
57	5	1	0.79802501	-9.5249996	-3.1170001	-2.7780001
58	5	2	-0.64137	-8.9549999	-4.0640001	-2.174
59	5	3	-0.51733798	-10.566	-3.3699999	-3.727
60	5	4	0.085947998	-11.04	-4.723	-4.0349998
61	5	4	-0.181328	-11.82	-4.7249999	-5.3629999
62	5	4	-0.181328	-12.366	-6.1230001	-5.6830001
63	5	4	0.085947998	-13.258	-6.6420002	-4.54
64	5	3	-0.51733798	-13.732	-7.9959998	-4.848
65	5	1	0.79802501	-14.773	-8.2480001	-5.7969999
66	5	2	-0.64137	-15.343	-7.302	-6.402
67	5	4	-0.181328	-12.478	-6.6399999	-3.2119999
68	5	4	-0.181328	-11.932	-5.243	-2.8929999
69	5	5	0.30605501	-10.966	-2.549	-4.2350001
70	5	6	0.034455001	-10.16	-5.3959999	-4.1500001
71	5	7	0.086618997	-12.666	-4.0050001	-5.309
72	5	7	0.086618997	-11.147	-4.4029999	-6.1869998
73	5	7	0.086618997	-11.518	-6.8239999	-5.849
74	5	7	0.086618997	-12.953	-6.0689998	-6.625
75	5	6	0.034455001	-14.138	-5.9689999	-4.4250002
76	5	5	0.30605501	-13.331	-8.8170004	-4.3400002
77	5	7	0.086618997	-13.151	-6.9629998	-2.388
78	5	7	0.086618997	-11.632	-7.3610001	-3.266
79	5	7	0.086618997	-11.345	-5.296	-1.951
80	5	7	0.086618997	-12.78	-4.5419998	-2.727
81	13	8	-0.50257099	-15.069	-9.2250004	-5.987
82	13	4	0.141238	-15.97	-9.1750002	-7.0619998
83	13	4	-0.072112001	-15.203	-9.0690002	-8.3929996
84	13	4	-0.162728	-14.626	-10.379	-8.948
85	13	4	-0.107042	-14.882	-10.263	-10.474
86	13	4	-0.143328	-14.855	-8.7530003	-10.666
87	13	4	-0.096162997	-15.934	-8.4849997	-9.6239996
88	13	4	-0.073068999	-17.091	-9.3610001	-10.214
89	13	4	-0.16597	-18.160999	-9.9650002	-9.29
90	13	4	-0.18542001	-17.884001	-11.472	-9.1960001
91	13	4	-0.065761	-17.097	-11.814	-10.46
92	13	4	0.140614	-16.277	-13.124	-10.451
93	13	8	-0.50257099	-15.719	-13.399	-9.1969995
94	13	4	-0.067475997	-16.355	-10.532	-10.871
95	13	6	0.076350003	-16.576	-10.094	-7.0110002
96	13	6	0.076350003	-16.650999	-8.3009996	-6.9460001
97	13	7	0.107674	-14.35	-8.3789997	-8.1809998
98	13	7	0.105803	-13.533	-10.43	-8.7510004
99	13	7	0.105803	-15.094	-11.259	-8.4860001
100	13	7	0.110408	-14.144	-10.81	-11.098
101	13	7	0.100203	-15.144	-8.4250002	-11.693
102	13	7	0.100203	-13.863	-8.3009996	-10.428
103	13	7	0.121673	-16.193001	-7.4089999	-9.5200005
104	13	7	0.116669	-17.605	-8.7609997	-11.001
105	13	7	0.092949003	-19.153	-9.8360004	-9.7779999
106	13	7	0.092949003	-18.245001	-9.4650002	-8.309
107	13	7	0.098591	-18.834999	-12.046	-9.1540003
108	13	7	0.098591	-17.311001	-11.712	-8.2819996
109	13	7	0.107402	-17.871	-11.964	-11.25
110	13	6	0.076350003	-15.476	-13.069	-11.222
111	13	6	0.076350003	-16.951	-13.965	-10.727
112	13	7	0.128319	-16.423	-10.444	-11.982
113	6	1	0.79802501	-15.167	-14.27	-9.3100004
114	6	2	-0.64137	-14.342	-14.599	-8.4169998
115	6	3	-0.51733798	-15.347	-15.075	-10.48
116	6	4	0.085947998	-14.608	-16.323	-10.699
117	6	4	-0.181328	-14.67	-16.725	-12.185
118	6	4	-0.181328	-13.943	-18.054001	-12.43
119	6	4	0.085947998	-14.526	-19.174	-11.549
120	6	3	-0.51733798	-13.787	-20.421	-11.768
121	6	1	0.79802501	-13.967	-21.226999	-12.938
122	6	2	-0.64137	-14.792	-20.896999	-13.831
123	6	4	-0.181328	-14.464	-18.771	-10.063
124	6	4	-0.181328	-15.191	-17.443001	-9.8190002
125	6	5	0.30605501	-16.007999	-14.725	-11.211
126	6	6	0.034455001	-13.539	-16.160999	-10.43
127	6	7	0.086618997	-15.73	-16.823	-12.509
128	6	7	0.086618997	-14.194	-15.933	-12.802
129	6	7	0.086618997	-12.859	-17.929001	-12.213
130	6	7	0.086618997	-14.046	-18.323999	-13.502
131	6	6	0.034455001	-15.595	-19.334999	-11.818
132	6	5	0.30605501	-13.126	-20.771999	-11.037
133	6	7	0.086618997	-14.94	-19.563999	-9.4460001
134	6	7	0.086618997	-13.404	-18.674	-9.7390003
135	6	7	0.086618997	-15.087	-17.172001	-8.7460003
136	6	7	0.086618997	-16.275	-17.568001	-10.035
137	14	8	-0.50257099	-13.414	-22.097	-13.051
138	14	4	0.141238	-13.673	-22.577999	-14.344
139	14	4	-0.072112001	-12.82	-21.813999	-15.374
140	14	4	-0.162728	-11.359	-22.264	-15.509
141	14	4	-0.107042	-11.103	-22.191999	-17.038
142	14	4	-0.143328	-12.073	-21.094	-17.450001
143	14	4	-0.096162997	-13.291	-21.782	-16.847
144	14	4	-0.073068999	-13.229	-23.145	-17.617001
145	14	4	-0.16597	-13.795	-24.427	-16.982
146	14	4	-0.18542001	-12.601	-25.297001	-16.568001
147	14	4	-0.065761	-11.446	-24.841999	-17.458
148	14	4	0.140614	-10.013	-25.181999	-16.989
149	14	8	-0.50257099	-9.8760004	-25.122	-15.597
150	14	4	-0.067475997	-11.728	-23.374001	-17.82
151	14	6	0.076350003	-13.438	-23.653999	-14.336
152	14	6	0.076350003	-14.754	-22.458	-14.584
153	14	7	0.107674	-12.824	-20.753	-15.023
154	14	7	0.105803	-10.689	-21.551001	-14.98
155	14	7	0.105803	-11.198	-23.261999	-15.079
156	14	7	0.110408	-10.046	-21.986	-17.309999
157	14	7	0.100203	-12.15	-20.952	-18.555
158	14	7	0.100203	-11.831	-20.105	-16.993999
159	14	7	0.121673	-14.239	-21.223	-17
160	14	7	0.116669	-13.716	-23	-18.608999
161	14	7	0.092949003	-14.359	-24.98	-17.764999
162	14	7	0.092949003	-14.518	-24.245001	-16.167
163	14	7	0.098591	-12.824	-26.374001	-16.73
164	14	7	0.098591	-12.367	-25.163	-15.497
165	14	7	0.107402	-11.577	-25.403	-18.413
166	14	6	0.076350003	-9.2869997	-24.493	-17.475
167	14	6	0.076350003	-9.7690001	-26.216	-17.320999
168	14	7	0.128319	-11.469	-23.236	-18.896999
169	7	1	0.79802501	-8.8800001	-25.330999	-15.395
170	7	2	-0.64137	-8.4160004	-25.08	-14.251
171	7	3	-0.51733798	-8.052	-25.889999	-16.42
172	7	4	0.085947998	-6.6399999	-26.219	-16.198999
173	7	4	-0.181328	-5.9130001	-26.379	-17.548
174	7	4	-0.181328	-4.4439998	-26.77	-17.341999
175	7	4	0.085947998	-4.3270001	-28.065001	-16.517
176	7	3	-0.51733798	-2.915	-28.393999	-16.296
177	7	1	0.79802501	-2.086	-28.954	-17.320999
178	7	2	-0.64137	-2.55	-29.204	-18.465
179	7	4	-0.181328	-5.053	-27.905001	-15.168
180	7	4	-0.181328	-6.5219998	-27.514	-15.374
181	7	5	0.30605501	-8.4790001	-26.028999	-17.364
182	7	6	0.034455001	-6.1570001	-25.384001	-15.644
183	7	7	0.086618997	-6.4169998	-27.158001	-18.162001
184	7	7	0.086618997	-5.9569998	-25.42	-18.107
185	7	7	0.086618997	-3.908	-25.943001	-16.826
186	7	7	0.086618997	-3.971	-26.913	-18.337
187	7	6	0.034455001	-4.809	-28.9	-17.072001
188	7	5	0.30605501	-2.4879999	-28.254999	-15.352
189	7	7	0.086618997	-5.0089998	-28.864	-14.609
190	7	7	0.086618997	-4.5489998	-27.125999	-14.554
191	7	7	0.086618997	-6.9949999	-27.371	-14.379
192	7	7	0.086618997	-7.0580001	-28.341	-15.89
193	15	8	-0.50257099	-1.09	-29.162001	-17.118999
194	15	4	0.141238	-0.498	-29.535999	-18.334
195	15	4	-0.072112001	-0.147	-28.285	-19.160999
196	15	4	-0.162728	1.146	-27.555	-18.766001
197	15	4	-0.107042	1.76	-27.153999	-20.134001
198	15	4	-0.143328	0.51099998	-27.021999	-20.993999
199	15	4	-0.096162997	0.013	-28.43	-20.691999
200	15	4	-0.073068999	1.253	-29.254999	-21.177999
201	15	4	-0.16597	1.574	-30.622999	-20.552
202	15	4	-0.18542001	2.8080001	-30.437	-19.658001
203	15	4	-0.065761	3.5209999	-29.205	-20.211
204	15	4	0.140614	4.52	-28.486	-19.275999
205	15	8	-0.50257099	4.1110001	-28.503	-17.938
206	15	4	-0.067475997	2.438	-28.334999	-20.871
207	15	6	0.076350003	0.398	-30.125999	-18.084
208	15	6	0.076350003	-1.194	-30.188	-18.910999
209	15	7	0.107674	-1.001	-27.584	-19.000999
210	15	7	0.105803	0.90499997	-26.643	-18.177999
211	15	7	0.105803	1.802	-28.188999	-18.155001
212	15	7	0.110408	2.382	-26.233999	-20.097
213	15	7	0.100203	0.72500002	-26.853001	-22.076
214	15	7	0.100203	-0.17200001	-26.209	-20.649
215	15	7	0.121673	-0.93199998	-28.688999	-21.216999
216	15	7	0.116669	1.165	-29.386	-22.282
217	15	7	0.092949003	1.854	-31.320999	-21.372999
218	15	7	0.092949003	0.71899998	-31.096001	-20.039
219	15	7	0.098591	3.4679999	-31.330999	-19.707001
220	15	7	0.098591	2.513	-30.299	-18.603001
221	15	7	0.107402	4.1409998	-29.584999	-21.058001
222	15	6	0.076350003	4.665	-27.437	-19.618999
223	15	6	0.076350003	5.5050001	-29.002001	-19.348
224	15	7	0.128319	2.8610001	-27.934999	-21.823999
225	8	1	0.79802501	4.8260002	-27.969999	-17.41
226	8	2	-0.64137	4.5739999	-27.594999	-16.233999
227	8	3	-0.51733798	6.0809999	-27.664	-18.027
228	8	4	0.085947998	7.1409998	-26.924	-17.334
229	8	4	-0.181328	8.1590004	-26.374001	-18.35
230	8	4	-0.181328	9.3030005	-25.635	-17.643999
231	8	4	0.085947998	10.007	-26.552	-16.627001
232	8	3	-0.51733798	11.067	-25.812	-15.934
233	8	1	0.79802501	12.322	-25.506001	-16.551001
234	8	2	-0.64137	12.574	-25.881001	-17.726999
235	8	4	-0.181328	8.9899998	-27.101999	-15.611
236	8	4	-0.181328	7.8460002	-27.841	-16.316999
237	8	5	0.30605501	6.2140002	-27.957001	-19.021999
238	8	6	0.034455001	6.6859999	-26.059999	-16.798
239	8	7	0.086618997	8.5790005	-27.205999	-18.958
240	8	7	0.086618997	7.6459999	-25.67	-19.042
241	8	7	0.086618997	8.901	-24.736	-17.127001
242	8	7	0.086618997	10.03	-25.291	-18.409
243	8	6	0.034455001	10.462	-27.416	-17.163
244	8	5	0.30605501	10.934	-25.518999	-14.939
245	8	7	0.086618997	9.5019999	-27.806	-14.919
246	8	7	0.086618997	8.5690002	-26.27	-15.003
247	8	7	0.086618997	7.118	-28.184999	-15.552
248	8	7	0.086618997	8.2469997	-28.74	-16.834
249	16	8	-0.50257099	13.038	-24.973	-16.023001
250	16	4	0.141238	14.075	-24.681999	-16.922001
251	16	4	-0.072112001	13.7	-23.465	-17.789
252	16	4	-0.162728	13.89	-22.087	-17.136999
253	16	4	-0.107042	14.452	-21.221001	-18.296
254	16	4	-0.143328	13.842	-21.912001	-19.507999
255	16	4	-0.096162997	14.405	-23.283001	-19.153
256	16	4	-0.073068999	15.931	-22.933001	-19.096001
257	16	4	-0.16597	16.882	-23.735001	-18.193001
258	16	4	-0.18542001	17.249001	-22.836	-17.004999
259	16	4	-0.065761	17.030001	-21.408001	-17.5
260	16	4	0.140614	16.863001	-20.305	-16.431
261	16	8	-0.50257099	16.174	-20.754999	-15.299
262	16	4	-0.067475997	15.949	-21.488001	-18.591
263	16	6	0.076350003	14.976	-24.490999	-16.316999
264	16	6	0.076350003	14.272	-25.563999	-17.573
265	16	7	0.107674	12.614	-23.594	-18.013
266	16	7	0.105803	12.908	-21.683001	-16.805
267	16	7	0.105803	14.55	-22.136999	-16.261
268	16	7	0.110408	14.197	-20.142	-18.216999
269	16	7	0.100203	14.217	-21.521999	-20.483999
270	16	7	0.100203	12.728	-21.862	-19.523001
271	16	7	0.121673	14.152	-24.072001	-19.893999
272	16	7	0.116669	16.327	-22.962999	-20.138
273	16	7	0.092949003	17.816	-23.934999	-18.764999
274	16	7	0.092949003	16.496	-24.726999	-17.899
275	16	7	0.098591	18.309	-22.992001	-16.705
276	16	7	0.098591	16.618999	-23.063999	-16.127001
277	16	7	0.107402	17.966999	-21.143	-18.044001
278	16	6	0.076350003	16.337999	-19.429001	-16.875
279	16	6	0.076350003	17.874001	-19.964001	-16.114
280	16	7	0.128319	16.253	-20.802999	-19.419001
281	9	1	0.79802501	16.087999	-19.936001	-14.668
282	9	2	-0.64137	15.281	-19.982	-13.702
283	9	3	-0.51733798	16.879999	-18.768	-14.91
284	9	4	0.085947998	16.816	-17.580999	-14.052
285	9	4	-0.181328	17.417	-16.364	-14.781
286	9	4	-0.181328	17.403999	-15.119	-13.884
287	9	4	0.085947998	18.159	-15.378	-12.568
288	9	3	-0.51733798	18.094999	-14.191	-11.71
289	9	1	0.79802501	18.886999	-13.023	-11.952
290	9	2	-0.64137	19.694	-12.977	-12.918
291	9	4	-0.181328	17.558001	-16.594999	-11.839
292	9	4	-0.181328	17.570999	-17.84	-12.736
293	9	5	0.30605501	17.493999	-18.768999	-15.756
294	9	6	0.034455001	15.749	-17.355	-13.826
295	9	7	0.086618997	18.464001	-16.583	-15.089
296	9	7	0.086618997	16.826	-16.155001	-15.699
297	9	7	0.086618997	16.351999	-14.83	-13.666
298	9	7	0.086618997	17.879999	-14.279	-14.434
299	9	6	0.034455001	19.226	-15.604	-12.794
300	9	5	0.30605501	17.481001	-14.19	-10.864
301	9	7	0.086618997	18.149	-16.804001	-10.921
302	9	7	0.086618997	16.511	-16.375999	-11.531
303	9	7	0.086618997	17.094	-18.68	-12.186
304	9	7	0.086618997	18.622999	-18.129	-12.954
305	17	8	-0.50257099	18.801001	-12.204	-11.321
306	17	4	0.141238	19.556	-11.169	-11.892
307	17	4	-0.072112001	18.754	-10.484	-13.015
308	17	4	-0.162728	17.704	-9.4569998	-12.565
309	17	4	-0.107042	17.84	-8.3249998	-13.617
310	17	4	-0.143328	18.327999	-9.1029997	-14.831
311	17	4	-0.096162997	19.525999	-9.7069998	-14.107
312	17	4	-0.073068999	20.239	-8.3929996	-13.641
313	17	4	-0.16597	21.110001	-8.3859997	-12.373
314	17	4	-0.18542001	20.33	-7.6300001	-11.289
315	17	4	-0.065761	19.358999	-6.7280002	-12.049
316	17	4	0.140614	18.134001	-6.1929998	-11.273
317	17	8	-0.50257099	17.636	-7.1199999	-10.35
318	17	4	-0.067475997	19.08	-7.4239998	-13.392
319	17	6	0.076350003	19.802	-10.469	-11.079
320	17	6	0.076350003	20.509001	-11.576	-12.302
321	17	7	0.107674	18.223	-11.315	-13.539
322	17	7	0.105803	16.687	-9.9029999	-12.619
323	17	7	0.105803	17.874001	-9.125	-11.532
324	17	7	0.110408	16.902	-7.757	-13.793
325	17	7	0.100203	18.617001	-8.4569998	-15.694
326	17	7	0.100203	17.586	-9.8520002	-15.196
327	17	7	0.121673	20.155001	-10.355	-14.755
328	17	7	0.116669	20.855	-8.0190001	-14.492
329	17	7	0.092949003	22.033001	-7.8039999	-12.591
330	17	7	0.092949003	21.455999	-9.3850002	-12.058
331	17	7	0.098591	21.018	-7.0250001	-10.658
332	17	7	0.098591	19.798	-8.3319998	-10.623
333	17	7	0.107402	19.952	-5.8210001	-12.314
334	17	6	0.076350003	17.334999	-5.8990002	-11.99
335	17	6	0.076350003	18.441	-5.276	-10.719
336	17	7	0.128319	19.07	-6.6370001	-14.184
337	10	1	0.79802501	16.805	-6.677	-9.9160004
338	10	2	-0.64137	16.004	-7.3870001	-9.25
339	10	3	-0.51733798	16.579	-5.2740002	-10.086
340	10	4	0.085947998	15.431	-4.5830002	-9.4899998
341	10	4	-0.181328	15.208	-3.2249999	-10.183
342	10	4	-0.181328	14.04	-2.4630001	-9.5439997
343	10	4	0.085947998	14.272	-2.2590001	-8.0360003
344	10	3	-0.51733798	13.124	-1.568	-7.4390001
345	10	1	0.79802501	12.898	-0.16500001	-7.6100001
346	10	2	-0.64137	13.698	0.54500002	-8.2749996
347	10	4	-0.181328	14.495	-3.6170001	-7.3429999
348	10	4	-0.181328	15.663	-4.3790002	-7.9809999
349	10	5	0.30605501	17.249001	-4.7470002	-10.691
350	10	6	0.034455001	14.518	-5.2020001	-9.6420002
351	10	7	0.086618997	16.129999	-2.6070001	-10.115
352	10	7	0.086618997	14.985	-3.392	-11.259
353	10	7	0.086618997	13.095	-3.026	-9.7080002
354	10	7	0.086618997	13.941	-1.477	-10.047
355	10	6	0.034455001	15.185	-1.64	-7.8839998
356	10	5	0.30605501	12.454	-2.095	-6.835
357	10	7	0.086618997	14.717	-3.4489999	-6.2659998
358	10	7	0.086618997	13.572	-4.2350001	-7.4099998
359	10	7	0.086618997	15.762	-5.3649998	-7.4790001
360	10	7	0.086618997	16.608	-3.816	-7.8169999
361	18	8	-0.50257099	12.066	0.278	-7.1750002
362	18	4	0.141238	12.017	1.599	-7.6430001
363	18	4	-0.072112001	11.395	1.64	-9.052
364	18	4	-0.162728	9.8629999	1.569	-9.1160002
365	18	4	-0.107042	9.507	2.576	-10.242
366	18	4	-0.143328	10.758	2.51	-11.107
367	18	4	-0.096162997	11.706	2.8499999	-9.9639997
368	18	4	-0.073068999	11.096	4.2210002	-9.5159998
369	18	4	-0.16597	11.232	4.698	-8.0609999
370	18	4	-0.18542001	9.8529997	4.5570002	-7.4039998
371	18	4	-0.065761	8.8540001	4.5890002	-8.559
372	18	4	0.140614	7.4439998	4.0149999	-8.2919998
373	18	8	-0.50257099	7.4679999	2.911	-7.4320002
374	18	4	-0.067475997	9.599	4.0549998	-9.7930002
375	18	6	0.076350003	11.42	2.1719999	-6.9159999
376	18	6	0.076350003	13.043	2.0320001	-7.6700001
377	18	7	0.107674	11.805	0.74199998	-9.5749998
378	18	7	0.105803	9.5389996	0.546	-9.4090004
379	18	7	0.105803	9.4020004	1.806	-8.1479998
380	18	7	0.110408	8.5690002	2.332	-10.786
381	18	7	0.100203	10.775	3.263	-11.931
382	18	7	0.100203	10.923	1.503	-11.558
383	18	7	0.121673	12.772	2.9119999	-10.274
384	18	7	0.116669	11.508	5.0120001	-10.185
385	18	7	0.092949003	11.49	5.7810001	-8.0749998
386	18	7	0.092949003	12.046	4.2069998	-7.4990001
387	18	7	0.098591	9.6660004	5.395	-6.6960001
388	18	7	0.098591	9.7819996	3.6159999	-6.8299999
389	18	7	0.107402	8.6890001	5.6729999	-8.7690001
390	18	6	0.076350003	6.9640002	3.7379999	-9.257
391	18	6	0.076350003	6.8210001	4.8109999	-7.8239999
392	18	7	0.128319	9.3050003	4.6880002	-10.665
393	11	1	0.79802501	6.4860001	2.5869999	-7.3499999
394	11	2	-0.64137	6.2490001	1.451	-6.8579998
395	11	3	-0.51733798	5.421	3.4300001	-7.803
396	11	4	0.085947998	4.0110002	3.039	-7.7059999
397	11	4	-0.181328	3.151	3.9100001	-8.6409998
398	11	4	-0.181328	1.665	3.55	-8.5220003
399	11	4	0.085947998	1.178	3.688	-7.0679998
400	11	3	-0.51733798	-0.233	3.296	-6.9720001
401	11	1	0.79802501	-1.2970001	4.1389999	-7.4250002
402	11	2	-0.64137	-1.061	5.2750001	-7.9159999
403	11	4	-0.181328	2.0369999	2.816	-6.1329999
404	11	4	-0.181328	3.5239999	3.1760001	-6.2519999
405	11	5	0.30605501	5.6810002	4.3390002	-8.2480001
406	11	6	0.034455001	3.9070001	1.979	-8.0310001
407	11	7	0.086618997	3.289	4.9860001	-8.3929996
408	11	7	0.086618997	3.4779999	3.757	-9.6929998
409	11	7	0.086618997	1.506	2.5079999	-8.8769999
410	11	7	0.086618997	1.08	4.2270002	-9.1820002
411	11	6	0.034455001	1.281	4.7480001	-6.744
412	11	5	0.30605501	-0.493	2.3870001	-6.526
413	11	7	0.086618997	1.71	2.97	-5.0819998
414	11	7	0.086618997	1.899	1.74	-6.382
415	11	7	0.086618997	4.1079998	2.4990001	-5.5929999
416	11	7	0.086618997	3.6830001	4.2189999	-5.8969998
417	19	8	-0.50257099	-2.279	3.8150001	-7.342
418	19	4	0.141238	-3.0769999	4.7579999	-8.0080004
419	19	4	-0.072112001	-3.0409999	4.506	-9.5270004
420	19	4	-0.162728	-3.951	3.3829999	-10.047
421	19	4	-0.107042	-4.5100002	3.964	-11.373
422	19	4	-0.143328	-3.381	4.8959999	-11.79
423	19	4	-0.096162997	-3.385	5.6750002	-10.48
424	19	4	-0.073068999	-4.875	6.1560001	-10.466
425	19	4	-0.16597	-5.5970001	6.4229999	-9.1339998
426	19	4	-0.18542001	-6.5960002	5.2789998	-8.9189997
427	19	4	-0.065761	-6.8790002	4.7270002	-10.315
428	19	4	0.140614	-7.4689999	3.3010001	-10.407
429	19	8	-0.50257099	-6.9679999	2.448	-9.4169998
430	19	4	-0.067475997	-5.6269999	5.0159998	-11.159
431	19	6	0.076350003	-4.0949998	4.658	-7.5999999
432	19	6	0.076350003	-2.7119999	5.7870002	-7.7870002
433	19	7	0.107674	-1.983	4.224	-9.7480001
434	19	7	0.105803	-3.3499999	2.471	-10.257
435	19	7	0.105803	-4.7270002	3.1159999	-9.3179998
436	19	7	0.110408	-4.7620001	3.1930001	-12.132
437	19	7	0.100203	-3.6229999	5.5279999	-12.677
438	19	7	0.100203	-2.427	4.3569999	-12.002
439	19	7	0.121673	-2.645	6.5040002	-10.454
440	19	7	0.116669	-4.9429998	7.0749998	-11.093
441	19	7	0.092949003	-6.1810002	7.3649998	-9.2410002
442	19	7	0.092949003	-4.9190001	6.5890002	-8.2790003
443	19	7	0.098591	-7.5300002	5.6550002	-8.4469995
444	19	7	0.098591	-6.1750002	4.506	-8.2530003
445	19	7	0.107402	-7.6690001	5.3930001	-10.736
446	19	6	0.076350003	-7.2670002	2.8759999	-11.415
447	19	6	0.076350003	-8.5740004	3.3670001	-10.286
448	19	7	0.128319	-5.9699998	5.349	-12.168
449	3	8	-0.50257099	4.8449998	0.161	0.229
450	3	4	0.141238	5.6729999	-0.671	-0.54000002
451	3	4	-0.072112001	5.427	-0.42500001	-2.04
452	3	4	-0.162728	6.118	0.80599999	-2.645
453	3	4	-0.106639	6.5869999	0.303	-4.0359998
454	3	4	-0.143328	5.5450001	-0.76599997	-4.3330002
455	3	4	-0.096162997	5.803	-1.539	-3.0439999
456	3	4	-0.072659999	7.3340001	-1.824	-3.2119999
457	3	4	-0.16568799	8.2349997	-1.997	-1.978
458	3	4	-0.18052401	9.099	-0.73299998	-1.863
459	3	4	-0.101931	9.1420002	-0.148	-3.2739999
460	3	4	0.136847	9.5299997	1.342	-3.411
461	3	9	-0.68489403	9.0439997	2.122	-2.355
462	3	4	-0.060908999	7.8460002	-0.59600002	-3.97
463	3	6	0.076350003	6.711	-0.44100001	-0.252
464	3	6	0.076350003	5.4710002	-1.739	-0.29300001
465	3	7	0.107674	4.323	-0.28099999	-2.132
466	3	7	0.105803	5.3850002	1.633	-2.7690001
467	3	7	0.105803	6.934	1.17	-2.007
468	3	7	0.110408	6.6469998	1.101	-4.8070002
469	3	7	0.100203	5.7600002	-1.3609999	-5.2519999
470	3	7	0.100203	4.5120001	-0.35499999	-4.4239998
471	3	7	0.121673	5.1830001	-2.4560001	-2.9449999
472	3	7	0.116669	7.4439998	-2.727	-3.8570001
473	3	7	0.092949003	8.9180002	-2.855	-2.1670001
474	3	7	0.092949003	7.6890001	-2.25	-1.052
475	3	7	0.098656997	10.122	-0.986	-1.508
476	3	7	0.098656997	8.6630001	-0.021	-1.14
477	3	7	0.11127	9.9560003	-0.70700002	-3.7939999
478	3	6	0.069844998	9.158	1.737	-4.382
479	3	6	0.069844998	10.641	1.418	-3.421
480	3	10	0.369196	9.3149996	3.056	-2.5539999
481	3	7	0.128702	8.1079998	-0.88200003	-5.0170002
482	2	1	0.79802501	-7.4159999	1.48	-9.5970001
483	2	2	-0.64137	-8.559	1.2309999	-9.1309996
484	2	3	-0.51733798	-6.7049999	0.50300002	-10.366
485	2	4	0.086355001	-7.2470002	-0.83200002	-10.639
486	2	4	-0.18016	-6.4980001	-1.48	-11.819
487	2	4	-0.143052	-7.0219998	-2.8940001	-12.097
488	2	4	0.205598	-6.914	-3.776	-10.838
489	2	3	-0.69706601	-7.4120002	-5.1279998	-11.098
490	2	11	0.60403597	-8.6160002	-5.3769999	-11.434
491	2	2	-0.54474002	-9.7849998	-5.618	-11.76
492	2	4	-0.143052	-7.6550002	-3.131	-9.6499996
493	2	4	-0.18016	-7.132	-1.714	-9.3809996
494	2	5	0.30605501	-5.7820001	0.78399998	-10.769
495	2	6	0.034455001	-8.3199997	-0.73400003	-10.923
496	2	7	0.084949002	-6.6350002	-0.85699999	-12.73
497	2	7	0.084949002	-5.408	-1.529	-11.597
498	2	7	0.082539	-6.427	-3.348	-12.919
499	2	7	0.082539	-8.0810003	-2.8310001	-12.433
500	2	6	0.025606001	-5.8379998	-3.8640001	-10.568
501	2	7	0.082539	-7.507	-3.753	-8.7410002
502	2	7	0.082539	-8.7469997	-3.0829999	-9.8590002
503	2	7	0.084949002	-7.7220001	-1.2690001	-8.552
504	2	7	0.084949002	-6.0700002	-1.767	-9.0530005

Bonds

1	1	1	2
2	2	1	3
3	3	1	449
4	4	3	4
5	5	3	13
6	6	4	5
7	6	4	12
8	7	4	14
9	6	5	6
10	7	5	15
11	7	5	16
12	6	6	7
13	7	6	17
14	7	6	18
15	4	7	8
16	6	7	11
17	7	7	19
18	2	8	9
19	5	8	20
20	1	9	10
21	3	9	25
22	6	11	12
23	7	11	21
24	7	11	22
25	7	12	23
26	7	12	24
27	8	25	26
28	6	26	27
29	7	26	39
30	7	26	40
31	6	27	28
32	6	27	31
33	7	27	41
34	6	28	29
35	7	28	42
36	7	28	43
37	6	29	30
38	6	29	38
39	7	29	44
40	6	30	31
41	7	30	45
42	7	30	46
43	6	31	32
44	7	31	47
45	6	32	33
46	6	32	38
47	7	32	48
48	6	33	34
49	7	33	49
50	7	33	50
51	6	34	35
52	7	34	51
53	7	34	52
54	6	35	36
55	6	35	38
56	7	35	53
57	8	36	37
58	7	36	54
59	7	36	55
60	3	37	57
61	7	38	56
62	1	57	58
63	2	57	59
64	4	59	60
65	5	59	69
66	6	60	61
67	6	60	68
68	7	60	70
69	6	61	62
70	7	61	71
71	7	61	72
72	6	62	63
73	7	62	73
74	7	62	74
75	4	63	64
76	6	63	67
77	7	63	75
78	2	64	65
79	5	64	76
80	1	65	66
81	3	65	81
82	6	67	68
83	7	67	77
84	7	67	78
85	7	68	79
86	7	68	80
87	8	81	82
88	6	82	83
89	7	82	95
90	7	82	96
91	6	83	84
92	6	83	87
93	7	83	97
94	6	84	85
95	7	84	98
96	7	84	99
97	6	85	86
98	6	85	94
99	7	85	100
100	6	86	87
101	7	86	101
102	7	86	102
103	6	87	88
104	7	87	103
105	6	88	89
106	6	88	94
107	7	88	104
108	6	89	90
109	7	89	105
110	7	89	106
111	6	90	91
112	7	90	107
113	7	90	108
114	6	91	92
115	6	91	94
116	7	91	109
117	8	92	93
118	7	92	110
119	7	92	111
120	3	93	113
121	7	94	112
122	1	113	114
123	2	113	115
124	4	115	116
125	5	115	125
126	6	116	117
127	6	116	124
128	7	116	126
129	6	117	118
130	7	117	127
131	7	117	128
132	6	118	119
133	7	118	129
134	7	118	130
135	4	119	120
136	6	119	123
137	7	119	131
138	2	120	121
139	5	120	132
140	1	121	122
141	3	121	137
142	6	123	124
143	7	123	133
144	7	123	134
145	7	124	135
146	7	124	136
147	8	137	138
148	6	138	139
149	7	138	151
150	7	138	152
151	6	139	140
152	6	139	143
153	7	139	153
154	6	140	141
155	7	140	154
156	7	140	155
157	6	141	142
158	6	141	150
159	7	141	156
160	6	142	143
161	7	142	157
162	7	142	158
163	6	143	144
164	7	143	159
165	6	144	145
166	6	144	150
167	7	144	160
168	6	145	146
169	7	145	161
170	7	145	162
171	6	146	147
172	7	146	163
173	7	146	164
174	6	147	148
175	6	147	150
176	7	147	165
177	8	148	149
178	7	148	166
179	7	148	167
180	3	149	169
181	7	150	168
182	1	169	170
183	2	169	171
184	4	171	172
185	5	171	181
186	6	172	173
187	6	172	180
188	7	172	182
189	6	173	174
190	7	173	183
191	7	173	184
192	6	174	175
193	7	174	185
194	7	174	186
195	4	175	176
196	6	175	179
197	7	175	187
198	2	176	177
199	5	176	188
200	1	177	178
201	3	177	193
202	6	179	180
203	7	179	189
204	7	179	190
205	7	180	191
206	7	180	192
207	8	193	194
208	6	194	195
209	7	194	207
210	7	194	208
211	6	195	196
212	6	195	199
213	7	195	209
214	6	196	197
215	7	196	210
216	7	196	211
217	6	197	198
218	6	197	206
219	7	197	212
220	6	198	199
221	7	198	213
222	7	198	214
223	6	199	200
224	7	199	215
225	6	200	201
226	6	200	206
227	7	200	216
228	6	201	202
229	7	201	217
230	7	201	218
231	6	202	203
232	7	202	219
233	7	202	220
234	6	203	204
235	6	203	206
236	7	203	221
237	8	204	205
238	7	204	222
239	7	204	223
240	3	205	225
241	7	206	224
242	1	225	226
243	2	225	227
244	4	227	228
245	5	227	237
246	6	228	229
247	6	228	236
248	7	228	238
249	6	229	230
250	7	229	239
251	7	229	240
252	6	230	231
253	7	230	241
254	7	230	242
255	4	231	232
256	6	231	235
257	7	231	243
258	2	232	233
259	5	232	244
260	1	233	234
261	3	233	249
262	6	235	236
263	7	235	245
264	7	235	246
265	7	236	247
266	7	236	248
267	8	249	250
268	6	250	251
269	7	250	263
270	7	250	264
271	6	251	252
272	6	251	255
273	7	251	265
274	6	252	253
275	7	252	266
276	7	252	267
277	6	253	254
278	6	253	262
279	7	253	268
280	6	254	255
281	7	254	269
282	7	254	270
283	6	255	256
284	7	255	271
285	6	256	257
286	6	256	262
287	7	256	272
288	6	257	258
289	7	257	273
290	7	257	274
291	6	258	259
292	7	258	275
293	7	258	276
294	6	259	260
295	6	259	262
296	7	259	277
297	8	260	261
298	7	260	278
299	7	260	279
300	3	261	281
301	7	262	280
302	1	281	282
303	2	281	283
304	4	283	284
305	5	283	293
306	6	284	285
307	6	284	292
308	7	284	294
309	6	285	286
310	7	285	295
311	7	285	296
312	6	286	287
313	7	286	297
314	7	286	298
315	4	287	288
316	6	287	291
317	7	287	299
318	2	288	289
319	5	288	300
320	1	289	290
321	3	289	305
322	6	291	292
323	7	291	301