Title

495 atoms
494 bonds
905 angles
1680 dihedrals
102 impropers

11 atom types
12 bond types
9 angle types
33 dihedral types
2 improper types
-12.72099972 87.27900028 xlo xhi
-22.77300072 77.22699928 ylo yhi
-43.46500015 56.53499985 zlo zhi
0.0 0.0 0.0 xy xz yz

Masses

1	12.01078
2	15.99943
3	14.00672
4	12.01078
5	1.007947
6	1.007947
7	1.007947
8	15.99943
9	15.99943
10	1.007947
11	12.01078


Pair Coeffs

1	0.086879315	3.4806469
2	0.2102061	3.0398122
3	0.16769152	3.206876
4	0.10884061	3.3795318
5	0.014090815	1.1034277
6	0.016409246	2.5832257
7	0.015779483	2.6445434
8	0.16846514	3.0251065
9	0.20947353	2.99716
10	1.2326e-05	0.53453923
11	0.21	3.3996695

Bond Coeffs

1 harmonic	582.698766451	1.225198386222
2 harmonic	492.76746816345	1.381897776683
3 harmonic	301.15400723785	1.345741232799
4 harmonic	352.0565580496	1.450098586273
5 harmonic	505.144496193	1.019481865027
6 harmonic	264.62148576755	1.52190126495
7 harmonic	370.04670688625	1.093899492634
8 harmonic	366.7408841747	1.425895053732
9 harmonic	329.96998057905	1.427343958716
10 harmonic	543.5267831885	0.9716763312559
11 harmonic	366.34047229585	1.464762957261
12 harmonic	602.81384337	1.196112346392


Angle Coeffs

1 harmonic	55.42182150775	117.3465570514
2 harmonic	63.44422595415	115.5071327674
3 harmonic	65.09061609600001	110.3538806181
4 harmonic	57.8982893754	126.8062420451
5 harmonic	201.41175231035	127.4691416191
6 harmonic	53.20531626545	116.5475862634
7 harmonic	48.776492647595	115.6030999533
8 harmonic	55.07882548015	112.8714009681
9 harmonic	33.56981613361	180


Dihedral Coeffs

1 fourier 1	-0.1488678166443	4	180
2 fourier 1	-0.1230328948768	3	180
3 fourier 1	0.2939295466901	2	0
4 fourier 1	-0.3024127022865	1	0
5 fourier 1	0.182238503271	2	0
6 fourier 1	0.02972342374561	3	0
7 fourier 1	0.1918272375143	3	0
8 fourier 1	0.9202179876409	1	180
9 fourier 1	0.0473758381877	3	0
10 fourier 1	1.809047390003	2	180
11 fourier 1	-0.04816277792592	1	0
12 fourier 1	0.4860993122944	2	180
13 fourier 1	0.8916986138746	1	0
14 fourier 1	1.163809172478	2	180
15 fourier 1	0.1679186987369	1	180
16 fourier 1	2.779853741805	2	180
17 fourier 1	0.1155372516788	3	0
18 fourier 1	0.09223874044423	3	0
19 fourier 1	0.3159935921949	2	180
20 fourier 1	0.3247796806857	1	180
21 fourier 1	0.1040663847541	3	0
22 fourier 1	0.1911926717192	3	0
23 fourier 1	-0.0309670556842	3	0
24 fourier 1	0.4598191477945	2	0
25 fourier 1	0.1115525666802	3	0
26 fourier 1	0.3432490222662	1	0
27 fourier 1	0.4552156463534	3	0
28 fourier 1	-0.03687743385131	2	180
29 fourier 1	0.3445382149273	3	0
30 fourier 1	0.1364556373303	1	0
31 fourier 1	0.3026390167484	3	0
32 fourier 1	-1.382973039546	1	0
33 fourier 1	0	1	0


Improper Coeffs

1 0.3333333333333333	-1	2
2 3.5	-1	2


Atoms

1	4	1	0.78545398	4.4159999	1.058	0.071999997
2	4	2	-0.60739398	4.3740001	0.90700001	1.322
3	4	3	-0.46528101	3.779	0.123	-0.80400002
4	4	4	0.025497001	3.039	-1.041	-0.31799999
5	4	4	-0.144169	1.682	-0.63499999	0.26899999
6	4	4	-0.14206199	0.74800003	-0.048	-0.80199999
7	4	4	-0.14206199	-0.58099997	0.456	-0.21699999
8	4	4	-0.144169	-1.501	-0.69	0.236
9	4	4	0.025497001	-2.8759999	-0.177	0.68300003
10	4	3	-0.46528101	-3.6760001	0.28200001	-0.454
11	4	1	0.78545398	-4.9790001	0.84399998	-0.27399999
12	4	2	-0.60739398	-5.4749999	0.96799999	0.87699997
13	4	5	0.32638299	3.8989999	0.249	-1.834
14	4	6	0.057906002	2.8789999	-1.7539999	-1.1569999
15	4	6	0.057906002	3.6400001	-1.568	0.45500001
16	4	7	0.088930003	1.832	0.102	1.087
17	4	7	0.088930003	1.2180001	-1.543	0.70899999
18	4	7	0.087702997	0.54900002	-0.80699998	-1.59
19	4	7	0.087702997	1.253	0.81599998	-1.288
20	4	7	0.087702997	-1.095	1.048	-1.005
21	4	7	0.087702997	-0.38100001	1.14	0.63599998
22	4	7	0.088930003	-1.036	-1.214	1.099
23	4	7	0.088930003	-1.63	-1.4299999	-0.58399999
24	4	6	0.057906002	-2.7479999	0.653	1.4119999
25	4	6	0.057906002	-3.4170001	-1.003	1.192
26	4	5	0.32638299	-3.3139999	0.191	-1.4299999
27	12	8	-0.49636701	-5.5240002	1.153	-1.101
28	12	4	0.105215	-4.7950001	2.1919999	-1.6950001
29	12	4	0.078492001	-4.9580002	3.483	-0.89099997
30	12	8	-0.48724499	-4.3200002	4.5549998	-1.557
31	12	4	0.059089001	-3.026	4.7690001	-1.03
32	12	4	0.059347	-2.277	5.763	-1.91
33	12	8	-0.487351	-2.0339999	5.1919999	-3.1830001
34	12	4	0.059347	-2.829	5.8140001	-4.1719999
35	12	4	0.059089001	-2.638	5.0949998	-5.5009999
36	12	8	-0.48724499	-1.284	5.184	-5.8930001
37	12	4	0.078492001	-1.0880001	4.5799999	-7.1589999
38	12	4	0.105214	-0.70099998	5.6399999	-8.184
39	12	8	-0.49636701	-1.765	6.5300002	-8.3739996
40	12	6	0.091926999	-3.72	1.915	-1.772
41	12	6	0.091926999	-5.1810002	2.352	-2.724
42	12	6	0.084097996	-6.0419998	3.7190001	-0.82599998
43	12	6	0.084097996	-4.6040001	3.3340001	0.15800001
44	12	6	0.085394002	-2.438	3.823	-0.991
45	12	6	0.085394002	-3.102	5.1939998	-0.0040000002
46	12	6	0.085394002	-1.294	5.974	-1.437
47	12	6	0.085394002	-2.8299999	6.7340002	-1.934
48	12	6	0.085394002	-2.5280001	6.8790002	-4.296
49	12	6	0.085394002	-3.9089999	5.7649999	-3.9030001
50	12	6	0.085394002	-3.299	5.5780001	-6.256
51	12	6	0.085394002	-2.937	4.0300002	-5.3740001
52	12	6	0.084097996	-0.24600001	3.8599999	-7.0679998
53	12	6	0.084097996	-1.962	3.9990001	-7.5409999
54	12	6	0.091926999	0.19599999	6.1929998	-7.8239999
55	12	6	0.091926999	-0.45300001	5.1409998	-9.1470003
56	5	1	0.78545398	-1.439	7.223	-9.0719995
57	5	2	-0.60739398	-1.099	8.3739996	-8.6890001
58	5	3	-0.46528101	-1.3890001	6.8639998	-10.457
59	5	4	0.025497001	-0.93699998	7.7859998	-11.499
60	5	4	-0.144169	0.58700001	7.96	-11.468
61	5	4	-0.14206199	1.318	6.6529999	-11.814
62	5	4	-0.14206199	2.845	6.7789998	-11.693
63	5	4	-0.144169	3.457	7.6459999	-12.806
64	5	4	0.025497001	4.9910002	7.6440001	-12.754
65	5	3	-0.46528101	5.5440001	6.3559999	-13.177
66	5	1	0.78545398	6.9520001	6.1069999	-13.169
67	5	2	-0.60739398	7.7620001	6.9920001	-12.785
68	5	5	0.32638299	-1.7460001	5.9239998	-10.738
69	5	6	0.057906002	-1.243	7.3969998	-12.495
70	5	6	0.057906002	-1.4299999	8.7729998	-11.362
71	5	7	0.088930003	0.903	8.3179998	-10.465
72	5	7	0.088930003	0.85299999	8.7419996	-12.209
73	5	7	0.087702997	1.0470001	6.3270001	-12.842
74	5	7	0.087702997	0.98799998	5.8559999	-11.112
75	5	7	0.087702997	3.2750001	5.756	-11.747
76	5	7	0.087702997	3.1099999	7.1989999	-10.698
77	5	7	0.088930003	3.1140001	8.6949997	-12.684
78	5	7	0.088930003	3.1199999	7.289	-13.804
79	5	6	0.057906002	5.3319998	7.8769999	-11.721
80	5	6	0.057906002	5.3730001	8.4379997	-13.431
81	5	5	0.32638299	4.915	5.5929999	-13.515
82	13	8	-0.49636701	7.3119998	5.1859999	-13.483
83	13	4	0.105215	6.802	4.2319999	-12.593
84	13	4	0.078492001	7.5700002	4.2740002	-11.271
85	13	8	-0.48724499	7.132	3.2320001	-10.42
86	13	4	0.059089001	6.1669998	3.71	-9.5050001
87	13	4	0.059347	5.5440001	2.5320001	-8.7629995
88	13	8	-0.487351	4.7930002	1.737	-9.6639996
89	13	4	0.059347	5.4330001	0.498	-9.8900003
90	13	4	0.059089001	4.6690001	-0.278	-10.956
91	13	8	-0.48724499	3.3540001	-0.52700001	-10.503
92	13	4	0.078492001	2.638	-1.304	-11.447
93	13	4	0.105214	2.326	-2.675	-10.857
94	13	8	-0.49636701	3.5150001	-3.3829999	-10.64
95	13	6	0.091926999	5.717	4.4070001	-12.418
96	13	6	0.091926999	6.9159999	3.2249999	-13.048
97	13	6	0.084097996	8.6459999	4.1069999	-11.487
98	13	6	0.084097996	7.494	5.289	-10.811
99	13	6	0.085394002	5.3520002	4.2680001	-10.022
100	13	6	0.085394002	6.651	4.3790002	-8.7600002
101	13	6	0.085394002	4.8460002	2.9330001	-7.9980001
102	13	6	0.085394002	6.3379998	1.978	-8.2049999
103	13	6	0.085394002	5.4510002	-0.106	-8.9540005
104	13	6	0.085394002	6.4749999	0.648	-10.252
105	13	6	0.085394002	5.2080002	-1.234	-11.145
106	13	6	0.085394002	4.6500001	0.32800001	-11.891
107	13	6	0.084097996	1.677	-0.78899997	-11.656
108	13	6	0.084097996	3.1500001	-1.434	-12.431
109	13	6	0.091926999	1.778	-2.549	-9.8959999
110	13	6	0.091926999	1.679	-3.2379999	-11.567
111	6	1	0.78545398	3.2349999	-4.2969999	-10.237
112	6	2	-0.60739398	3.385	-4.4990001	-9.0030003
113	6	3	-0.46528101	2.6949999	-5.3119998	-11.089
114	6	4	0.025497001	2.276	-6.6220002	-10.594
115	6	4	-0.144169	0.95099998	-6.5320001	-9.8260002
116	6	4	-0.14206199	-0.212	-6.1139998	-10.741
117	6	4	-0.14206199	-1.53	-5.9219999	-9.974
118	6	4	-0.144169	-2.131	-7.2519999	-9.4879999
119	6	4	0.025497001	-3.513	-7.0539999	-8.8509998
120	6	3	-0.46528101	-4.5289998	-6.7319999	-9.8549995
121	6	1	0.78545398	-5.8850002	-6.4629998	-9.4890003
122	6	2	-0.60739398	-6.244	-6.4879999	-8.2819996
123	6	5	0.32638299	2.6530001	-5.125	-12.116
124	6	6	0.057906002	2.158	-7.3210001	-11.45
125	6	6	0.057906002	3.0650001	-7.039	-9.9309998
126	6	7	0.088930003	1.051	-5.8099999	-8.9870005
127	6	7	0.088930003	0.741	-7.5320001	-9.3920002
128	6	7	0.087702997	-0.352	-6.869	-11.546
129	6	7	0.087702997	0.039999999	-5.1469998	-11.228
130	6	7	0.087702997	-2.25	-5.4219999	-10.657
131	6	7	0.087702997	-1.365	-5.243	-9.1090002
132	6	7	0.088930003	-1.464	-7.697	-8.7209997
133	6	7	0.088930003	-2.2119999	-7.9710002	-10.332
134	6	6	0.057906002	-3.4649999	-6.243	-8.092
135	6	6	0.057906002	-3.806	-7.994	-8.335
136	6	5	0.32638299	-4.2839999	-6.7090001	-10.871
137	14	8	-0.49636701	-6.5830002	-6.2449999	-10.224
138	14	4	0.105215	-6.1630001	-5.0539999	-10.834
139	14	4	0.078492001	-6.4809999	-3.8570001	-9.9370003
140	14	8	-0.48724499	-6.164	-2.651	-10.605
141	14	4	0.059089001	-4.8850002	-2.191	-10.221
142	14	4	0.059347	-4.473	-1.029	-11.12
143	14	8	-0.487351	-4.2839999	-1.49	-12.446
144	14	4	0.059347	-5.3080001	-1.012	-13.293
145	14	4	0.059089001	-5.1469998	-1.625	-14.677
146	14	8	-0.48724499	-3.901	-1.24	-15.22
147	14	4	0.078492001	-3.7490001	-1.743	-16.535
148	14	4	0.105214	-3.721	-0.588	-17.530001
149	14	8	-0.49636701	-4.96	0.064999998	-17.538
150	14	6	0.091926999	-5.072	-5.0970001	-11.054
151	14	6	0.091926999	-6.7010002	-4.941	-11.799
152	14	6	0.084097996	-7.572	-3.8559999	-9.7309999
153	14	6	0.084097996	-5.973	-3.9679999	-8.9490004
154	14	6	0.085394002	-4.1160002	-2.993	-10.311
155	14	6	0.085394002	-4.9130001	-1.829	-9.1689997
156	14	6	0.085394002	-3.5009999	-0.63499999	-10.753
157	14	6	0.085394002	-5.21	-0.19599999	-11.018
158	14	6	0.085394002	-5.2490001	0.097000003	-13.385
159	14	6	0.085394002	-6.3119998	-1.296	-12.903
160	14	6	0.085394002	-5.9829998	-1.2640001	-15.318
161	14	6	0.085394002	-5.204	-2.734	-14.583
162	14	6	0.084097996	-2.7750001	-2.273	-16.59
163	14	6	0.084097996	-4.5289998	-2.4790001	-16.848
164	14	6	0.091926999	-2.9159999	0.127	-17.245001
165	14	6	0.091926999	-3.5020001	-0.98799998	-18.546
166	7	1	0.78545398	-4.8730001	0.83700001	-18.225
167	7	2	-0.60739398	-4.7280002	2.0190001	-17.813
168	7	3	-0.46528101	-4.9289999	0.54799998	-19.625999
169	7	4	0.025497001	-4.8119998	1.582	-20.653999
170	7	4	-0.144169	-3.3640001	2.0699999	-20.791
171	7	4	-0.14206199	-2.4319999	0.95899999	-21.302
172	7	4	-0.14206199	-0.95999998	1.398	-21.354
173	7	4	-0.144169	-0.685	2.415	-22.475
174	7	4	0.025497001	0.81099999	2.7320001	-22.603001
175	7	3	-0.46528101	1.5549999	1.6059999	-23.169001
176	7	1	0.78545398	2.974	1.6569999	-23.341999
177	7	2	-0.60739398	3.6289999	2.677	-23.002001
178	7	5	0.32638299	-5.1199999	-0.43599999	-19.921
179	7	6	0.057906002	-5.1570001	1.174	-21.629
180	7	6	0.057906002	-5.473	2.438	-20.398001
181	7	7	0.088930003	-3.0009999	2.4489999	-19.812
182	7	7	0.088930003	-3.359	2.918	-21.507999
183	7	7	0.087702997	-2.76	0.62199998	-22.309999
184	7	7	0.087702997	-2.5	0.086000003	-20.617001
185	7	7	0.087702997	-0.34099999	0.49000001	-21.521999
186	7	7	0.087702997	-0.66100001	1.827	-20.372999
187	7	7	0.088930003	-1.215	3.3640001	-22.247999
188	7	7	0.088930003	-1.067	2.0320001	-23.445999
189	7	6	0.057906002	1.227	2.993	-21.605
190	7	6	0.057906002	0.93300003	3.6129999	-23.268999
191	7	5	0.32638299	1.057	0.74000001	-23.476999
192	15	8	-0.49636701	3.471	0.84399998	-23.753
193	15	4	0.105215	3.2839999	-0.228	-22.871
194	15	4	0.078492001	4.1900001	-0.074000001	-21.648001
195	15	8	-0.48724499	4.086	-1.216	-20.819
196	15	4	0.059089001	3.1689999	-0.986	-19.768999
197	15	4	0.059347	2.8989999	-2.2950001	-19.034
198	15	8	-0.487351	2.217	-3.1949999	-19.888
199	15	4	0.059347	3.0599999	-4.263	-20.264999
200	15	4	0.059089001	2.3399999	-5.1420002	-21.280001
201	15	8	-0.48724499	1.173	-5.678	-20.693001
202	15	4	0.078492001	0.51499999	-6.553	-21.591999
203	15	4	0.105214	0.56599998	-7.98	-21.056999
204	15	8	-0.49636701	1.892	-8.4300003	-21.025999
205	15	6	0.091926999	2.217	-0.29100001	-22.559
206	15	6	0.091926999	3.5409999	-1.171	-23.399
207	15	6	0.084097996	5.2410002	-0.0040000002	-21.999001
208	15	6	0.084097996	3.9679999	0.884	-21.120001
209	15	6	0.085394002	2.198	-0.59200001	-20.15
210	15	6	0.085394002	3.598	-0.257	-19.045
211	15	6	0.085394002	2.237	-2.0769999	-18.167999
212	15	6	0.085394002	3.8540001	-2.6900001	-18.608999
213	15	6	0.085394002	3.3199999	-4.8839998	-19.378
214	15	6	0.085394002	3.9960001	-3.885	-20.737
215	15	6	0.085394002	3.0339999	-5.9559999	-21.591
216	15	6	0.085394002	2.079	-4.5190001	-22.166
217	15	6	0.084097996	-0.55000001	-6.243	-21.655001
218	15	6	0.084097996	0.912	-6.5359998	-22.636
219	15	6	0.091926999	0.132	-8.0059996	-20.032
220	15	6	0.091926999	-0.037999999	-8.6379995	-21.719999
221	8	1	0.78545398	1.858	-9.3959999	-20.650999
222	8	2	-0.60739398	2.2030001	-9.6079998	-19.458
223	8	3	-0.46528101	1.431	-10.469	-21.496
224	8	4	0.025497001	1.355	-11.856	-21.037001
225	8	4	-0.144169	0.148	-12.074	-20.115
226	8	4	-0.14206199	-1.183	-11.875	-20.858999
227	8	4	-0.14206199	-2.4030001	-11.992	-19.931999
228	8	4	-0.144169	-2.654	-13.436	-19.462999
229	8	4	0.025497001	-3.954	-13.556	-18.657
230	8	3	-0.46528101	-5.1339998	-13.417	-19.511999
231	8	1	0.78545398	-6.4580002	-13.452	-18.972
232	8	2	-0.60739398	-6.6469998	-13.597	-17.735001
233	8	5	0.32638299	1.221	-10.258	-22.497
234	8	6	0.057906002	1.272	-12.532	-21.916
235	8	6	0.057906002	2.29	-12.123	-20.5
236	8	7	0.088930003	0.206	-11.378	-19.25
237	8	7	0.088930003	0.204	-13.111	-19.723
238	8	7	0.087702997	-1.268	-12.613	-21.688
239	8	7	0.087702997	-1.198	-10.86	-21.311001
240	8	7	0.087702997	-3.2909999	-11.63	-20.493
241	8	7	0.087702997	-2.2709999	-11.327	-19.051001
242	8	7	0.088930003	-1.817	-13.76	-18.809
243	8	7	0.088930003	-2.694	-14.124	-20.334999
244	8	6	0.057906002	-3.9749999	-12.782	-17.858999
245	8	6	0.057906002	-3.9809999	-14.555	-18.169001
246	8	5	0.32638299	-5.0310001	-13.305	-20.546
247	16	8	-0.49636701	-7.2740002	-13.358	-19.606001
248	16	4	0.105215	-7.1859999	-12.084	-20.184999
249	16	4	0.078492001	-7.6240001	-11.015	-19.183001
250	16	8	-0.48724499	-7.6479998	-9.7449999	-19.806999
251	16	4	0.059089001	-6.4499998	-9.0410004	-19.548
252	16	4	0.059347	-6.401	-7.7870002	-20.415001
253	16	8	-0.487351	-6.2940001	-8.1479998	-21.780001
254	16	4	0.059347	-7.494	-7.8649998	-22.469
255	16	4	0.059089001	-7.3899999	-8.3789997	-23.899
256	16	8	-0.48724499	-6.3280001	-7.7210002	-24.558001
257	16	4	0.078492001	-6.2480001	-8.132	-25.912001
258	16	4	0.105214	-6.5819998	-6.961	-26.829
259	16	8	-0.49636701	-7.9190001	-6.5819998	-26.649
260	16	6	0.091926999	-6.1479998	-11.889	-20.534
261	16	6	0.091926999	-7.8559999	-12.051	-21.07
262	16	6	0.084097996	-8.6569996	-11.25	-18.85
263	16	6	0.084097996	-6.9819999	-11.052	-18.27
264	16	6	0.085394002	-5.553	-9.6610003	-19.778
265	16	6	0.085394002	-6.4169998	-8.7329998	-18.479
266	16	6	0.085394002	-5.4920001	-7.211	-20.141001
267	16	6	0.085394002	-7.2729998	-7.131	-20.174
268	16	6	0.085394002	-7.6739998	-6.7659998	-22.497
269	16	6	0.085394002	-8.3610001	-8.3669996	-21.982
270	16	6	0.085394002	-8.3579998	-8.1780005	-24.413
271	16	6	0.085394002	-7.2080002	-9.4779997	-23.868
272	16	6	0.084097996	-5.2010002	-8.4440002	-26.114
273	16	6	0.084097996	-6.895	-9.0039997	-26.174999
274	16	6	0.091926999	-5.9099998	-6.105	-26.596001
275	16	6	0.091926999	-6.4190001	-7.2690001	-27.886
276	9	1	0.78545398	-8.0799999	-5.7849998	-27.292
277	9	2	-0.60739398	-8.1260004	-4.6149998	-26.827
278	9	3	-0.46528101	-8.2550001	-6.027	-28.691999
279	9	4	0.025497001	-8.4820004	-4.9549999	-29.66
280	9	4	-0.144169	-7.1939998	-4.1690001	-29.936001
281	9	4	-0.14206199	-6.1290002	-5.0409999	-30.621
282	9	4	-0.14206199	-4.796	-4.3010001	-30.819
283	9	4	-0.144169	-4.8790002	-3.2079999	-31.898001
284	9	4	0.025497001	-3.5079999	-2.5799999	-32.181
285	9	3	-0.46528101	-2.6289999	-3.5039999	-32.900002
286	9	1	0.78545398	-1.285	-3.1500001	-33.235001
287	9	2	-0.60739398	-0.81300002	-2.0280001	-32.910999
288	9	5	0.32638299	-8.2779999	-7.0180001	-29.024
289	9	6	0.057906002	-8.8590002	-5.3889999	-30.611
290	9	6	0.057906002	-9.2659998	-4.2670002	-29.275
291	9	7	0.088930003	-6.7930002	-3.7590001	-28.983999
292	9	7	0.088930003	-7.4530001	-3.313	-30.594
293	9	7	0.087702997	-6.5079999	-5.402	-31.603001
294	9	7	0.087702997	-5.9299998	-5.9330001	-29.989
295	9	7	0.087702997	-4.0320001	-5.052	-31.115
296	9	7	0.087702997	-4.467	-3.855	-29.854
297	9	7	0.088930003	-5.5580001	-2.401	-31.551001
298	9	7	0.088930003	-5.296	-3.6270001	-32.84
299	9	6	0.057906002	-3.03	-2.2750001	-31.225
300	9	6	0.057906002	-3.654	-1.669	-32.800999
301	9	5	0.32638299	-2.9760001	-4.4419999	-33.201
302	17	8	-0.49636701	-0.68900001	-3.825	-33.751999
303	17	4	0.105215	-0.54000002	-4.9439998	-32.923
304	17	4	0.078492001	0.465	-4.6490002	-31.808001
305	17	8	-0.48724499	0.70200002	-5.8169999	-31.045
306	17	4	0.059089001	-0.101	-5.823	-29.882
307	17	4	0.059347	-0.0020000001	-7.1859999	-29.204
308	17	8	-0.487351	-0.58999997	-8.177	-30.027
309	17	4	0.059347	0.39700001	-9.0299997	-30.566999
310	17	4	0.059089001	-0.25299999	-10.002	-31.542999
311	17	8	-0.48724499	-1.201	-10.792	-30.857
312	17	4	0.078492001	-1.777	-11.751	-31.726
313	17	4	0.105214	-1.369	-13.155	-31.291
314	17	8	-0.49636701	0.013	-13.318	-31.445
315	17	6	0.091926999	-1.523	-5.2410002	-32.492001
316	17	6	0.091926999	-0.167	-5.7919998	-33.535
317	17	6	0.084097996	1.426	-4.3470001	-32.275002
318	17	6	0.084097996	0.122	-3.779	-31.198
319	17	6	0.085394002	-1.171	-5.6269999	-30.122
320	17	6	0.085394002	0.26100001	-5.0479999	-29.17
321	17	6	0.085394002	-0.57800001	-7.1430001	-28.254999
322	17	6	0.085394002	1.0599999	-7.3870001	-28.92
323	17	6	0.085394002	0.88999999	-9.6140003	-29.757
324	17	6	0.085394002	1.168	-8.4469995	-31.121
325	17	6	0.085394002	0.54699999	-10.64	-31.983999
326	17	6	0.085394002	-0.74599999	-9.415	-32.352001
327	17	6	0.084097996	-2.882	-11.669	-31.643
328	17	6	0.084097996	-1.529	-11.613	-32.806999
329	17	6	0.091926999	-1.654	-13.31	-30.226
330	17	6	0.091926999	-1.906	-13.9	-31.919001
331	10	1	0.78545398	0.22499999	-14.282	-31.129
332	10	2	-0.60739398	0.75599998	-14.462	-30.000999
333	10	3	-0.46528101	-0.079000004	-15.39	-31.983999
334	10	4	0.025497001	0.18799999	-16.778	-31.607
335	10	4	-0.144169	-0.82099998	-17.277	-30.565001
336	10	4	-0.14206199	-2.2490001	-17.334999	-31.134001
337	10	4	-0.14206199	-3.29	-17.74	-30.077999
338	10	4	-0.144169	-3.1800001	-19.219999	-29.674
339	10	4	0.025497001	-4.3150001	-19.639999	-28.73
340	10	3	-0.46528101	-5.598	-19.719	-29.43
341	10	1	0.78545398	-6.8070002	-20.051001	-28.742001
342	10	2	-0.60739398	-6.803	-20.278	-27.503
343	10	5	0.32638299	-0.454	-15.19	-32.938
344	10	6	0.057906002	0.133	-17.423	-32.511002
345	10	6	0.057906002	1.219	-16.862	-31.201
346	10	7	0.088930003	-0.796	-16.618	-29.671
347	10	7	0.088930003	-0.50599998	-18.294001	-30.247999
348	10	7	0.087702997	-2.2869999	-18.042999	-31.990999
349	10	7	0.087702997	-2.5280001	-16.329	-31.516001
350	10	7	0.087702997	-4.2979999	-17.551001	-30.507
351	10	7	0.087702997	-3.1849999	-17.094	-29.179001
352	10	7	0.088930003	-2.2179999	-19.385	-29.145
353	10	7	0.088930003	-3.191	-19.868	-30.577
354	10	6	0.057906002	-4.3899999	-18.917	-27.889
355	10	6	0.057906002	-4.0749998	-20.639	-28.306
356	10	5	0.32638299	-5.6529999	-19.551001	-30.459999
357	18	8	-0.49636701	-7.6989999	-20.107	-29.268
358	18	4	0.105215	-7.947	-18.823	-29.771999
359	18	4	0.078492001	-8.4610004	-17.906	-28.660999
360	18	8	-0.48724499	-8.823	-16.648001	-29.197001
361	18	4	0.059089001	-7.77	-15.719	-29.038
362	18	4	0.059347	-8.0889997	-14.45	-29.823
363	18	8	-0.487351	-8.0860004	-14.731	-31.212
364	18	4	0.059347	-9.3970003	-14.68	-31.735001
365	18	4	0.059089001	-9.3739996	-15.108	-33.196999
366	18	8	-0.48724499	-8.5620003	-14.219	-33.933998
367	18	4	0.078492001	-8.573	-14.553	-35.311001
368	18	4	0.105214	-9.2539997	-13.445	-36.106998
369	18	8	-0.49636701	-10.605	-13.362	-35.748001
370	18	6	0.091926999	-7.0229998	-18.402	-30.229
371	18	6	0.091926999	-8.7180004	-18.898001	-30.569
372	18	6	0.084097996	-9.3739996	-18.365	-28.224001
373	18	6	0.084097996	-7.7129998	-17.841999	-27.834
374	18	6	0.085394002	-6.802	-16.127001	-29.409
375	18	6	0.085394002	-7.664	-15.449	-27.962999
376	18	6	0.085394002	-7.2880001	-13.708	-29.622999
377	18	6	0.085394002	-9.0380001	-14.001	-29.441
378	18	6	0.085394002	-9.7989998	-13.643	-31.674
379	18	6	0.085394002	-10.074	-15.371	-31.183001
380	18	6	0.085394002	-10.42	-15.096	-33.580002
381	18	6	0.085394002	-8.9709997	-16.145	-33.256001
382	18	6	0.084097996	-7.52	-14.631	-35.653999
383	18	6	0.084097996	-9.0579996	-15.531	-35.550999
384	18	6	0.091926999	-8.7460003	-12.476	-35.902
385	18	6	0.091926999	-9.1680002	-13.672	-37.193001
386	11	1	0.78545398	-11.006	-12.592	-36.316002
387	11	2	-0.60739398	-11.23	-11.476	-35.777
388	11	3	-0.46528101	-11.306	-12.815	-37.698002
389	11	4	0.025497001	-11.869	-11.779	-38.563999
390	11	4	-0.144169	-10.814	-10.731	-38.938999
391	11	4	-0.14206199	-9.6899996	-11.334	-39.799
392	11	4	-0.14206199	-8.5719995	-10.324	-40.105
393	11	4	-0.144169	-9.0129995	-9.2340002	-41.096001
394	11	4	0.025497001	-7.8470001	-8.323	-41.499001
395	11	3	-0.46528101	-6.8979998	-9.0139999	-42.373001
396	11	1	0.78545398	-5.7080002	-8.375	-42.841
397	11	2	-0.60739398	-5.4359999	-7.191	-42.504002
398	11	5	0.32638299	-11.169	-13.775	-38.085999
399	11	6	0.057906002	-12.268	-12.247	-39.490002
400	11	6	0.057906002	-12.721	-11.285	-38.047001
401	11	7	0.088930003	-10.386	-10.281	-38.018002
402	11	7	0.088930003	-11.324	-9.9250002	-39.507999
403	11	7	0.087702997	-10.11	-11.73	-40.749001
404	11	7	0.087702997	-9.2349997	-12.188	-39.251999
405	11	7	0.087702997	-7.7160001	-10.887	-40.535
406	11	7	0.087702997	-8.2200003	-9.8549995	-39.16
407	11	7	0.088930003	-9.7930002	-8.6009998	-40.622002
408	11	7	0.088930003	-9.4540005	-9.6960001	-42.007
409	11	6	0.057906002	-7.322	-7.9590001	-40.588001
410	11	6	0.057906002	-8.2530003	-7.4400001	-42.037998
411	11	5	0.32638299	-7.0819998	-9.993	-42.688999
412	19	8	-0.49636701	-5.059	-8.8900003	-43.465
413	19	4	0.105215	-4.5799999	-9.9829998	-42.730999
414	19	4	0.078492001	-3.5220001	-9.5249996	-41.724998
415	19	8	-0.48724499	-2.9560001	-10.644	-41.070999
416	19	4	0.059089001	-3.585	-10.862	-39.824001
417	19	4	0.059347	-3.125	-12.197	-39.249001
418	19	8	-0.487351	-3.5999999	-13.259	-40.057999
419	19	4	0.059347	-2.5369999	-13.865	-40.763
420	19	4	0.059089001	-3.095	-14.915	-41.714001
421	19	8	-0.48724499	-3.767	-15.912	-40.972
422	19	4	0.078492001	-4.243	-16.937	-41.826
423	19	4	0.105214	-3.5050001	-18.239	-41.530998
424	19	8	-0.49636701	-2.1500001	-18.103001	-41.855999
425	19	6	0.091926999	-5.4190001	-10.494	-42.207001
426	19	6	0.091926999	-4.1230001	-10.711	-43.435001
427	19	6	0.084097996	-2.71	-9.0109997	-42.283001
428	19	6	0.084097996	-3.9530001	-8.7690001	-41.026001
429	19	6	0.085394002	-4.6950002	-10.886	-39.923
430	19	6	0.085394002	-3.3010001	-10.055	-39.112
431	19	6	0.085394002	-3.5710001	-12.312	-38.237999
432	19	6	0.085394002	-2.017	-12.182	-39.105
433	19	6	0.085394002	-1.836	-14.363	-40.054001
434	19	6	0.085394002	-1.979	-13.114	-41.366001
435	19	6	0.085394002	-2.2460001	-15.355	-42.285
436	19	6	0.085394002	-3.7969999	-14.416	-42.421001
437	19	6	0.084097996	-5.3210001	-17.091999	-41.609001
438	19	6	0.084097996	-4.1680002	-16.709999	-42.917
439	19	6	0.091926999	-3.6129999	-18.489	-40.452
440	19	6	0.091926999	-3.9549999	-19.056999	-42.136002
441	3	8	-0.49636701	4.9039998	1.834	-0.30899999
442	3	4	0.105215	6.2659998	1.613	-0.057999998
443	3	4	0.078492001	6.5900002	1.91	1.4069999
444	3	8	-0.48724499	7.9840002	1.801	1.628
445	3	4	0.059089001	8.3070002	0.52700001	2.148
446	3	4	0.059347	9.8219995	0.352	2.1570001
447	3	8	-0.487351	10.309	0.30899999	0.82700002
448	3	4	0.059347	11.037	1.4809999	0.523
449	3	4	0.059347	11.438	1.46	-0.94599998
450	3	8	-0.48520899	12.266	0.34299999	-1.191
451	3	4	0.051546998	12.708	0.33199999	-2.5369999
452	3	4	0.073789001	14.217	0.54799998	-2.5869999
453	3	9	-0.68131799	14.531	1.83	-2.118
454	3	6	0.091926999	6.54	0.565	-0.31299999
455	3	6	0.091926999	6.8600001	2.29	-0.70700002
456	3	6	0.084097996	6.2919998	2.957	1.626
457	3	6	0.084097996	5.9790001	1.261	2.079
458	3	6	0.085394002	7.8629999	-0.28999999	1.534
459	3	6	0.085394002	7.9359999	0.44100001	3.194
460	3	6	0.085394002	10.055	-0.62199998	2.6370001
461	3	6	0.085394002	10.287	1.14	2.7969999
462	3	6	0.085394002	11.96	1.536	1.1440001
463	3	6	0.085394002	10.419	2.391	0.69999999
464	3	6	0.085394002	11.978	2.408	-1.173
465	3	6	0.085394002	10.513	1.404	-1.5650001
466	3	6	0.086459003	12.486	-0.66900003	-2.9630001
467	3	6	0.086459003	12.207	1.0779999	-3.2
468	3	6	0.085810997	14.722	-0.22	-1.959
469	3	6	0.085810997	14.565	0.43799999	-3.638
470	3	10	0.38947299	15.519	1.9069999	-2.1689999
471	2	1	0.78545398	-1.688	-19.052	-41.618999
472	2	2	-0.60739398	-1.365	-19.833	-42.553001
473	2	3	-0.46528101	-1.444	-19.399	-40.251999
474	2	4	0.025497001	-0.83099997	-20.665001	-39.853001
475	2	4	-0.144169	-1.809	-21.84	-40.011002
476	2	4	-0.14187799	-3.131	-21.66	-39.243999
477	2	4	-0.137676	-2.938	-21.658001	-37.720001
478	2	4	-0.121865	-4.2909999	-21.632	-36.995998
479	2	4	0.184671	-4.1240001	-21.65	-35.473999
480	2	3	-0.63927299	-3.5250001	-20.402	-35.012001
481	2	11	0.59355003	-2.4300001	-20.381001	-34.363998
482	2	2	-0.46418199	-1.365	-20.361	-33.734001
483	2	5	0.32638299	-1.668	-18.694	-39.514
484	2	6	0.057906002	0.074000001	-20.85	-40.470001
485	2	6	0.057906002	-0.49200001	-20.597	-38.797001
486	2	7	0.088930003	-2.043	-21.972	-41.089001
487	2	7	0.088930003	-1.309	-22.773001	-39.672001
488	2	7	0.087702997	-3.632	-20.719999	-39.562
489	2	7	0.087702997	-3.8	-22.504	-39.521
490	2	7	0.086420998	-2.3759999	-22.569	-37.417
491	2	7	0.086420998	-2.352	-20.763	-37.424
492	2	7	0.082561001	-4.8839998	-22.525	-37.293999
493	2	7	0.082561001	-4.8610001	-20.725	-37.292999
494	2	6	0.032715	-5.1259999	-21.754999	-35.005001
495	2	6	0.032715	-3.5150001	-22.533001	-35.168999

Bonds

1	1	1	2
2	2	1	3
3	3	1	441
4	4	3	4
5	5	3	13
6	6	4	5
7	7	4	14
8	7	4	15
9	6	5	6
10	7	5	16
11	7	5	17
12	6	6	7
13	7	6	18
14	7	6	19
15	6	7	8
16	7	7	20
17	7	7	21
18	6	8	9
19	7	8	22
20	7	8	23
21	4	9	10
22	7	9	24
23	7	9	25
24	2	10	11
25	5	10	26
26	1	11	12
27	3	11	27
28	8	27	28
29	6	28	29
30	7	28	40
31	7	28	41
32	8	29	30
33	7	29	42
34	7	29	43
35	8	30	31
36	6	31	32
37	7	31	44
38	7	31	45
39	8	32	33
40	7	32	46
41	7	32	47
42	8	33	34
43	6	34	35
44	7	34	48
45	7	34	49
46	8	35	36
47	7	35	50
48	7	35	51
49	8	36	37
50	6	37	38
51	7	37	52
52	7	37	53
53	8	38	39
54	7	38	54
55	7	38	55
56	3	39	56
57	1	56	57
58	2	56	58
59	4	58	59
60	5	58	68
61	6	59	60
62	7	59	69
63	7	59	70
64	6	60	61
65	7	60	71
66	7	60	72
67	6	61	62
68	7	61	73
69	7	61	74
70	6	62	63
71	7	62	75
72	7	62	76
73	6	63	64
74	7	63	77
75	7	63	78
76	4	64	65
77	7	64	79
78	7	64	80
79	2	65	66
80	5	65	81
81	1	66	67
82	3	66	82
83	8	82	83
84	6	83	84
85	7	83	95
86	7	83	96
87	8	84	85
88	7	84	97
89	7	84	98
90	8	85	86
91	6	86	87
92	7	86	99
93	7	86	100
94	8	87	88
95	7	87	101
96	7	87	102
97	8	88	89
98	6	89	90
99	7	89	103
100	7	89	104
101	8	90	91
102	7	90	105
103	7	90	106
104	8	91	92
105	6	92	93
106	7	92	107
107	7	92	108
108	8	93	94
109	7	93	109
110	7	93	110
111	3	94	111
112	1	111	112
113	2	111	113
114	4	113	114
115	5	113	123
116	6	114	115
117	7	114	124
118	7	114	125
119	6	115	116
120	7	115	126
121	7	115	127
122	6	116	117
123	7	116	128
124	7	116	129
125	6	117	118
126	7	117	130
127	7	117	131
128	6	118	119
129	7	118	132
130	7	118	133
131	4	119	120
132	7	119	134
133	7	119	135
134	2	120	121
135	5	120	136
136	1	121	122
137	3	121	137
138	8	137	138
139	6	138	139
140	7	138	150
141	7	138	151
142	8	139	140
143	7	139	152
144	7	139	153
145	8	140	141
146	6	141	142
147	7	141	154
148	7	141	155
149	8	142	143
150	7	142	156
151	7	142	157
152	8	143	144
153	6	144	145
154	7	144	158
155	7	144	159
156	8	145	146
157	7	145	160
158	7	145	161
159	8	146	147
160	6	147	148
161	7	147	162
162	7	147	163
163	8	148	149
164	7	148	164
165	7	148	165
166	3	149	166
167	1	166	167
168	2	166	168
169	4	168	169
170	5	168	178
171	6	169	170
172	7	169	179
173	7	169	180
174	6	170	171
175	7	170	181
176	7	170	182
177	6	171	172
178	7	171	183
179	7	171	184
180	6	172	173
181	7	172	185
182	7	172	186
183	6	173	174
184	7	173	187
185	7	173	188
186	4	174	175
187	7	174	189
188	7	174	190
189	2	175	176
190	5	175	191
191	1	176	177
192	3	176	192
193	8	192	193
194	6	193	194
195	7	193	205
196	7	193	206
197	8	194	195
198	7	194	207
199	7	194	208
200	8	195	196
201	6	196	197
202	7	196	209
203	7	196	210
204	8	197	198
205	7	197	211
206	7	197	212
207	8	198	199
208	6	199	200
209	7	199	213
210	7	199	214
211	8	200	201
212	7	200	215
213	7	200	216
214	8	201	202
215	6	202	203
216	7	202	217
217	7	202	218
218	8	203	204
219	7	203	219
220	7	203	220
221	3	204	221
222	1	221	222
223	2	221	223
224	4	223	224
225	5	223	233
226	6	224	225
227	7	224	234
228	7	224	235
229	6	225	226
230	7	225	236
231	7	225	237
232	6	226	227
233	7	226	238
234	7	226	239
235	6	227	228
236	7	227	240
237	7	227	241
238	6	228	229
239	7	228	242
240	7	228	243
241	4	229	230
242	7	229	244
243	7	229	245
244	2	230	231
245	5	230	246
246	1	231	232
247	3	231	247
248	8	247	248
249	6	248	249
250	7	248	260
251	7	248	261
252	8	249	250
253	7	249	262
254	7	249	263
255	8	250	251
256	6	251	252
257	7	251	264
258	7	251	265
259	8	252	253
260	7	252	266
261	7	252	267
262	8	253	254
263	6	254	255
264	7	254	268
265	7	254	269
266	8	255	256
267	7	255	270
268	7	255	271
269	8	256	257
270	6	257	258
271	7	257	272
272	7	257	273
273	8	258	259
274	7	258	274
275	7	258	275
276	3	259	276
277	1	276	277
278	2	276	278
279	4	278	279
280	5	278	288
281	6	279	280
282	7	279	289
283	7	279	290
284	6	280	281
285	7	280	291
286	7	280	292
287	6	281	282
288	7	281	293
289	7	281	294
290	6	282	283
291	7	282	295
292	7	282	296
293	6	283	284
294	7	283	297
295	7	283	298
296	4	284	285
297	7	284	299
298	7	284	300