Title

1116 atoms
1115 bonds
2174 angles
4029 dihedrals
102 impropers

11 atom types
12 bond types
9 angle types
29 dihedral types
2 improper types
-15.57699966 84.42300034 xlo xhi
-53.74399948 46.25600052 ylo yhi
-2.858999968 97.14100003 zlo zhi
0.0 0.0 0.0 xy xz yz

Masses

1	12.01078
2	15.99943
3	14.00672
4	1.007947
5	12.01078
6	1.007947
7	1.007947
8	15.99943
9	15.99943
10	1.007947
11	12.01078


Pair Coeffs

1	0.086879315	3.4806469
2	0.2102061	3.0398122
3	0.16769152	3.206876
4	0.014090815	1.1034277
5	0.10884061	3.3795318
6	0.016409246	2.5832257
7	0.015779483	2.6445434
8	0.16846514	3.0251065
9	0.20947353	2.99716
10	1.2326e-05	0.53453923
11	0.21	3.3996695

Bond Coeffs

1 harmonic	582.698766451	1.225198386222
2 harmonic	492.76746816345	1.381897776683
3 harmonic	301.15400723785	1.345741232799
4 harmonic	505.144496193	1.019481865027
5 harmonic	352.0565580496	1.450098586273
6 harmonic	370.04670688625	1.093899492634
7 harmonic	264.62148576755	1.52190126495
8 harmonic	366.7408841747	1.425895053732
9 harmonic	329.96998057905	1.427343958716
10 harmonic	543.5267831885	0.9716763312559
11 harmonic	366.34047229585	1.464762957261
12 harmonic	602.81384337	1.196112346392


Angle Coeffs

1 harmonic	63.44422595415	115.5071327674
2 harmonic	55.42182150775	117.3465570514
3 harmonic	65.09061609600001	110.3538806181
4 harmonic	57.8982893754	126.8062420451
5 harmonic	201.41175231035	127.4691416191
6 harmonic	53.20531626545	116.5475862634
7 harmonic	48.776492647595	115.6030999533
8 harmonic	55.07882548015	112.8714009681
9 harmonic	33.56981613361	180


Dihedral Coeffs

1 fourier 1	0.182238503271	2	0
2 fourier 1	0.02972342374561	3	0
3 fourier 1	-0.1488678166443	4	180
4 fourier 1	-0.1230328948768	3	180
5 fourier 1	0.2939295466901	2	0
6 fourier 1	-0.3024127022865	1	0
7 fourier 1	0.0473758381877	3	0
8 fourier 1	0.1918272375143	3	0
9 fourier 1	0.9202179876409	1	180
10 fourier 1	0.4860993122944	2	180
11 fourier 1	0.8916986138746	1	0
12 fourier 1	1.809047390003	2	180
13 fourier 1	-0.04816277792592	1	0
14 fourier 1	1.163809172478	2	180
15 fourier 1	0.1679186987369	1	180
16 fourier 1	2.779853741805	2	180
17 fourier 1	0.1155372516788	3	0
18 fourier 1	0.1040663847541	3	0
19 fourier 1	0.09223874044423	3	0
20 fourier 1	0.3159935921949	2	180
21 fourier 1	0.3247796806857	1	180
22 fourier 1	0.1911926717192	3	0
23 fourier 1	0.1115525666802	3	0
24 fourier 1	0.3432490222662	1	0
25 fourier 1	0.3445382149273	3	0
26 fourier 1	0.1364556373303	1	0
27 fourier 1	0.3026390167484	3	0
28 fourier 1	-1.382973039546	1	0
29 fourier 1	0	1	0


Improper Coeffs

1 0.3333333333333333	-1	2
2 3.5	-1	2


Atoms

1	4	1	0.77841997	7.8070002	3.6830001	0.49399999
2	4	2	-0.64651	6.6269999	3.7639999	0.92900002
3	4	3	-0.47505501	8.5170002	2.4400001	0.51800001
4	4	4	0.31709701	9.5150003	2.434	0.20999999
5	4	5	0.020385001	7.927	1.2029999	1.024
6	4	6	0.043462001	7.4219999	1.3970001	1.995
7	4	6	0.043462001	8.7379999	0.463	1.202
8	4	5	-0.148277	6.9349999	0.62699997	0.0080000004
9	4	7	0.078386001	6.1339998	1.373	-0.176
10	4	7	0.078386001	7.467	0.433	-0.949
11	4	5	-0.144768	6.3119998	-0.67799997	0.52499998
12	4	7	0.077460997	7.1290002	-1.3840001	0.792
13	4	7	0.077460997	5.7360001	-0.484	1.454
14	4	5	-0.144352	5.4229999	-1.372	-0.52200001
15	4	7	0.076736003	6.0409999	-1.609	-1.415
16	4	7	0.076736003	5.0819998	-2.346	-0.111
17	4	5	-0.143106	4.1989999	-0.55500001	-0.98400003
18	4	7	0.076736003	3.6329999	-1.156	-1.7260001
19	4	7	0.076736003	4.546	0.34799999	-1.53
20	4	5	-0.143106	3.2479999	-0.11	0.145
21	4	7	0.076736003	3.78	0.59600002	0.81699997
22	4	7	0.076736003	2.4159999	0.47400001	-0.301
23	4	5	-0.143106	2.668	-1.2590001	0.99400002
24	4	7	0.076736003	2.006	-0.824	1.7720001
25	4	7	0.076736003	3.4920001	-1.7590001	1.5450001
26	4	5	-0.143106	1.89	-2.329	0.20100001
27	4	7	0.076736003	1.5	-3.0810001	0.92000002
28	4	7	0.076736003	2.5910001	-2.872	-0.46799999
29	4	5	-0.143106	0.71700001	-1.794	-0.63999999
30	4	7	0.076736003	0.29100001	-2.6570001	-1.193
31	4	7	0.076736003	1.084	-1.075	-1.402
32	4	5	-0.143106	-0.382	-1.141	0.21600001
33	4	7	0.076736003	-0.71100003	-1.8380001	1.018
34	4	7	0.076736003	0.035999998	-0.236	0.70499998
35	4	5	-0.143106	-1.5929999	-0.69599998	-0.62099999
36	4	7	0.076736003	-1.248	-0.189	-1.548
37	4	7	0.076736003	-2.158	0.046999998	-0.018999999
38	4	5	-0.143106	-2.5310001	-1.865	-0.97000003
39	4	7	0.076736003	-1.954	-2.6619999	-1.483
40	4	7	0.076736003	-2.941	-2.313	-0.039999999
41	4	5	-0.143106	-3.6760001	-1.454	-1.913
42	4	7	0.076736003	-3.24	-1.063	-2.859
43	4	7	0.076736003	-4.2589998	-2.3629999	-2.178
44	4	5	-0.143106	-4.6389999	-0.396	-1.344
45	4	7	0.076736003	-5.402	-0.183	-2.125
46	4	7	0.076736003	-4.0910001	0.551	-1.158
47	4	5	-0.144352	-5.3499999	-0.86400002	-0.061999999
48	4	7	0.076736003	-5.7589998	-1.885	-0.226
49	4	7	0.076736003	-4.6269999	-0.917	0.77899998
50	4	5	-0.144768	-6.5159998	0.055	0.33399999
51	4	7	0.077460997	-7.072	-0.435	1.164
52	4	7	0.077460997	-7.2150002	0.161	-0.52399999
53	4	5	-0.148277	-6.0419998	1.441	0.80199999
54	4	7	0.078386001	-5.27	1.319	1.5929999
55	4	7	0.078386001	-5.5819998	1.995	-0.045000002
56	4	5	0.020385001	-7.191	2.2779999	1.375
57	4	6	0.043462001	-6.7719998	3.2160001	1.798
58	4	6	0.043462001	-7.6830001	1.735	2.211
59	4	3	-0.47505501	-8.1529999	2.6259999	0.33000001
60	4	4	0.31709701	-7.8730001	3.3280001	-0.39199999
61	4	1	0.77841997	-9.4169998	1.971	0.18000001
62	4	2	-0.64651	-9.7799997	1.068	0.98100001
63	12	8	-0.505229	-10.044	2.24	-0.60100001
64	12	5	0.109818	-11.312	2.47	-0.046
65	12	6	0.073880002	-12.077	2.2249999	-0.81199998
66	12	6	0.073880002	-11.496	1.806	0.82999998
67	12	5	-0.142377	-11.472	3.9400001	0.352
68	12	7	0.082079001	-11.263	4.5830002	-0.53100002
69	12	7	0.082079001	-12.528	4.1069999	0.65899998
70	12	5	-0.143291	-10.543	4.3270001	1.5109999
71	12	7	0.078423999	-10.732	3.6440001	2.3659999
72	12	7	0.078423999	-9.4840002	4.2119999	1.1900001
73	12	5	-0.144439	-10.784	5.7810001	1.9430001
74	12	7	0.076736003	-10.663	6.441	1.056
75	12	7	0.076736003	-11.826	5.901	2.3099999
76	12	5	-0.143106	-9.7950001	6.2529998	3.0209999
77	12	7	0.076736003	-8.7539997	6.0279999	2.701
78	12	7	0.076736003	-9.8880005	7.3559999	3.0970001
79	12	5	-0.143106	-10.072	5.619	4.3959999
80	12	7	0.076736003	-9.9189997	4.5209999	4.323
81	12	7	0.076736003	-11.128	5.7930002	4.6940002
82	12	5	-0.143106	-9.1269999	6.1469998	5.4879999
83	12	7	0.076736003	-9.1490002	5.421	6.3280001
84	12	7	0.076736003	-8.085	6.1859999	5.1009998
85	12	5	-0.143106	-9.552	7.527	6.0180001
86	12	7	0.076736003	-10.552	7.4590001	6.4970002
87	12	7	0.076736003	-9.651	8.2360001	5.1700001
88	12	5	-0.143106	-8.5299997	8.1339998	6.9969997
89	12	7	0.076736003	-8.8690004	9.1549997	7.2750001
90	12	7	0.076736003	-7.5570002	8.25	6.4710002
91	12	5	-0.143106	-8.2950001	7.322	8.2840004
92	12	7	0.076736003	-7.507	7.848	8.8619995
93	12	7	0.076736003	-7.8940001	6.3169999	8.0380001
94	12	5	-0.143106	-9.5620003	7.1880002	9.1470003
95	12	7	0.076736003	-10.023	8.1859999	9.3129997
96	12	7	0.076736003	-10.299	6.5599999	8.6020002
97	12	5	-0.143106	-9.2849998	6.5079999	10.498
98	12	7	0.076736003	-8.618	5.6300001	10.351
99	12	7	0.076736003	-10.255	6.1339998	10.888
100	12	5	-0.143106	-8.6750002	7.473	11.529
101	12	7	0.076736003	-7.7589998	7.9349999	11.107
102	12	7	0.076736003	-9.382	8.3030005	11.739
103	12	5	-0.143106	-8.2679996	6.7719998	12.838
104	12	7	0.076736003	-7.513	5.9899998	12.605
105	12	7	0.076736003	-7.7680001	7.5159998	13.496
106	12	5	-0.143106	-9.4230003	6.119	13.619
107	12	7	0.076736003	-8.9750004	5.6170001	14.502
108	12	7	0.076736003	-9.9029999	5.3260002	13.008
109	12	5	-0.143106	-10.478	7.1350002	14.089
110	12	7	0.076736003	-9.9910002	7.9689999	14.639
111	12	7	0.076736003	-10.981	7.5650001	13.198
112	12	5	-0.144439	-11.567	6.494	14.966
113	12	7	0.076736003	-12.43	7.1919999	14.989
114	12	7	0.076736003	-11.916	5.5450001	14.503
115	12	5	-0.143291	-11.092	6.2360001	16.406
116	12	7	0.078423999	-10.229	5.539	16.389
117	12	7	0.078423999	-10.745	7.1859999	16.868999
118	12	5	-0.142377	-12.184	5.5999999	17.281
119	12	7	0.082079001	-12.64	4.7350001	16.752001
120	12	7	0.082079001	-11.704	5.2119999	18.205999
121	12	5	0.109818	-13.278	6.5970001	17.683001
122	12	6	0.073880002	-12.827	7.4959998	18.165001
123	12	6	0.073880002	-13.835	6.9330001	16.785
124	12	8	-0.505229	-14.189	5.987	18.556
125	5	1	0.77841997	-13.734	5.9569998	19.488001
126	5	2	-0.64651	-12.481	5.8600001	19.562
127	5	3	-0.47505501	-14.538	6.0159998	20.671
128	5	4	0.31709701	-15.577	6.0279999	20.563999
129	5	5	0.020385001	-13.969	5.9840002	22.017
130	5	6	0.043462001	-13.211	5.1729999	22.084
131	5	6	0.043462001	-14.778	5.7589998	22.745001
132	5	5	-0.148277	-13.34	7.3379998	22.365
133	5	7	0.078386001	-12.542	7.5650001	21.628
134	5	7	0.078386001	-14.121	8.1280003	22.298
135	5	5	-0.144768	-12.744	7.3200002	23.780001
136	5	7	0.077460997	-13.532	7.0019999	24.497999
137	5	7	0.077460997	-11.927999	6.5690002	23.84
138	5	5	-0.144352	-12.234	8.7010002	24.231001
139	5	7	0.076736003	-13.085	9.4160004	24.219999
140	5	7	0.076736003	-11.901	8.6289997	25.288
141	5	5	-0.143106	-11.096	9.2880001	23.374001
142	5	7	0.076736003	-10.808	10.273	23.797001
143	5	7	0.076736003	-11.477	9.5010004	22.353001
144	5	5	-0.143106	-9.842	8.3990002	23.254999
145	5	7	0.076736003	-10.104	7.4650002	22.714001
146	5	7	0.076736003	-9.099	8.915	22.611
147	5	5	-0.143106	-9.184	8.0240002	24.597
148	5	7	0.076736003	-8.3009996	7.3829999	24.391001
149	5	7	0.076736003	-9.8830004	7.3920002	25.184
150	5	5	-0.143106	-8.7539997	9.2200003	25.471001
151	5	7	0.076736003	-8.2700005	8.8249998	26.389999
152	5	7	0.076736003	-9.6569996	9.7720003	25.806999
153	5	5	-0.143106	-7.7919998	10.212	24.792999
154	5	7	0.076736003	-7.6160002	11.04	25.511
155	5	7	0.076736003	-8.2679996	10.66	23.896
156	5	5	-0.143106	-6.4460001	9.5710001	24.410999
157	5	7	0.076736003	-5.994	9.0690002	25.295
158	5	7	0.076736003	-6.6259999	8.7950001	23.636999
159	5	5	-0.143106	-5.4549999	10.589	23.822001
160	5	7	0.076736003	-5.9759998	11.246	23.091
161	5	7	0.076736003	-4.6789999	10.017	23.27
162	5	5	-0.143106	-4.7680001	11.437	24.906
163	5	7	0.076736003	-5.5370002	11.935	25.531
164	5	7	0.076736003	-4.178	10.783	25.583
165	5	5	-0.143106	-3.8710001	12.544	24.320999
166	5	7	0.076736003	-4.4949999	13.219	23.695
167	5	7	0.076736003	-3.4749999	13.157	25.16
168	5	5	-0.143106	-2.6890001	12.043	23.473
169	5	7	0.076736003	-2.138	12.936	23.105
170	5	7	0.076736003	-3.0680001	11.505	22.579
171	5	5	-0.144352	-1.721	11.148	24.266001
172	5	7	0.076736003	-1.477	11.643	25.231001
173	5	7	0.076736003	-2.2019999	10.173	24.495001
174	5	5	-0.144768	-0.403	10.895	23.516001
175	5	7	0.077460997	0.29499999	10.384	24.215
176	5	7	0.077460997	0.055	11.867	23.232
177	5	5	-0.148277	-0.59299999	10.016	22.268999
178	5	7	0.078386001	-1.141	9.0900002	22.551001
179	5	7	0.078386001	-1.198	10.556	21.509001
180	5	5	0.020385001	0.74599999	9.6119995	21.643
181	5	6	0.043462001	0.551	8.8909998	20.82
182	5	6	0.043462001	1.38	9.0889997	22.392
183	5	3	-0.47505501	1.434	10.778	21.087
184	5	4	0.31709701	1.05	11.217	20.221001
185	5	1	0.77841997	2.54	11.416	21.735001
186	5	2	-0.64651	3.003	10.971	22.819
187	13	8	-0.505229	2.967	12.259	21.308001
188	13	5	0.109818	4.3520002	12.041	21.268999
189	13	6	0.073880002	4.8610001	13.024	21.349001
190	13	6	0.073880002	4.6880002	11.422	22.132999
191	13	5	-0.142377	4.7610002	11.384	19.948
192	13	7	0.082079001	4.3979998	12.007	19.101
193	13	7	0.082079001	5.8719997	11.353	19.900999
194	13	5	-0.143291	4.211	9.9569998	19.819
195	13	7	0.078423999	4.5450001	9.3629999	20.697001
196	13	7	0.078423999	3.099	9.9890003	19.812
197	13	5	-0.144439	4.7059999	9.2939997	18.525
198	13	7	0.076736003	4.428	9.9420004	17.665001
199	13	7	0.076736003	5.8150001	9.2139997	18.538
200	13	5	-0.143106	4.0869999	7.9070001	18.292
201	13	7	0.076736003	2.9809999	7.967	18.392
202	13	7	0.076736003	4.3099999	7.6149998	17.245001
203	13	5	-0.143106	4.6440001	6.842	19.252001
204	13	7	0.076736003	4.3649998	7.1129999	20.292999
205	13	7	0.076736003	5.7550001	6.8169999	19.197001
206	13	5	-0.143106	4.0760002	5.441	18.971001
207	13	7	0.076736003	4.2410002	4.8249998	19.879999
208	13	7	0.076736003	2.98	5.5040002	18.798
209	13	5	-0.143106	4.7659998	4.7540002	17.778999
210	13	7	0.076736003	5.8429999	4.5999999	18.000999
211	13	7	0.076736003	4.7139997	5.415	16.889
212	13	5	-0.143106	4.1030002	3.4200001	17.391001
213	13	7	0.076736003	4.6069999	3.0250001	16.481001
214	13	7	0.076736003	3.0439999	3.615	17.112
215	13	5	-0.143106	4.1279998	2.3340001	18.482
216	13	7	0.076736003	3.5770001	1.4579999	18.083
217	13	7	0.076736003	3.575	2.678	19.381001
218	13	5	-0.143106	5.5549998	1.9100001	18.871
219	13	7	0.076736003	6.1440001	1.6589999	17.962
220	13	7	0.076736003	6.0560002	2.7639999	19.375
221	13	5	-0.143106	5.5700002	0.72299999	19.849001
222	13	7	0.076736003	4.8010001	0.87199998	20.638
223	13	7	0.076736003	6.5650001	0.71100003	20.344
224	13	5	-0.143106	5.3540001	-0.62599999	19.141001
225	13	7	0.076736003	4.4120002	-0.58899999	18.556
226	13	7	0.076736003	6.1719999	-0.81199998	18.416
227	13	5	-0.143106	5.2309999	-1.8050001	20.124001
228	13	7	0.076736003	4.3639998	-1.6210001	20.796
229	13	7	0.076736003	4.9990001	-2.7249999	19.545
230	13	5	-0.143106	6.4749999	-2.0669999	20.993
231	13	7	0.076736003	6.223	-2.904	21.676001
232	13	7	0.076736003	6.6940002	-1.1849999	21.629999
233	13	5	-0.143106	7.7160001	-2.441	20.163
234	13	7	0.076736003	7.4770002	-3.277	19.469999
235	13	7	0.076736003	8.0109997	-1.5650001	19.548
236	13	5	-0.144439	8.9230003	-2.8140001	21.040001
237	13	7	0.076736003	9.8299999	-2.7519999	20.403
238	13	7	0.076736003	9.0389996	-2.072	21.860001
239	13	5	-0.143291	8.8149996	-4.2340002	21.622
240	13	7	0.078423999	7.9099998	-4.3010001	22.261
241	13	7	0.078423999	8.7010002	-4.9749999	20.802
242	13	5	-0.142377	10.025	-4.605	22.493999
243	13	7	0.082079001	10.236	-3.7909999	23.222
244	13	7	0.082079001	9.7650003	-5.5159998	23.077
245	13	5	0.109818	11.283	-4.901	21.667999
246	13	6	0.073880002	11.069	-5.677	20.898001
247	13	6	0.073880002	11.619	-3.9819999	21.146
248	13	8	-0.505229	12.322	-5.3270001	22.507999
249	6	1	0.77841997	12.125	-6.3169999	22.746
250	6	2	-0.64651	10.931	-6.7119999	22.809999
251	6	3	-0.47505501	13.211	-7.2119999	23.009001
252	6	4	0.31709701	14.182	-6.8260002	23.011
253	6	5	0.020385001	13.011	-8.6199999	23.346001
254	6	6	0.043462001	12.217	-8.7119999	24.118999
255	6	6	0.043462001	13.955	-9.026	23.773001
256	6	5	-0.148277	12.639	-9.4230003	22.094999
257	6	7	0.078386001	11.705	-9.007	21.664
258	6	7	0.078386001	13.453	-9.3210001	21.343
259	6	5	-0.144768	12.433	-10.906	22.434
260	6	7	0.077460997	13.343	-11.287	22.948
261	6	7	0.077460997	11.588	-11.021	23.145
262	6	5	-0.144352	12.205	-11.779	21.187
263	6	7	0.076736003	13.093	-11.692	20.523001
264	6	7	0.076736003	12.153	-12.843	21.5
265	6	5	-0.143106	10.949	-11.426	20.364
266	6	7	0.076736003	10.885	-12.122	19.502001
267	6	7	0.076736003	11.072	-10.413	19.924
268	6	5	-0.143106	9.6230001	-11.463	21.149
269	6	7	0.076736003	9.6370001	-10.676	21.931999
270	6	7	0.076736003	8.7959995	-11.184	20.462999
271	6	5	-0.143106	9.3009996	-12.816	21.813999
272	6	7	0.076736003	8.3339996	-12.725	22.351
273	6	7	0.076736003	10.06	-13.029	22.596001
274	6	5	-0.143106	9.2410002	-14.019	20.851
275	6	7	0.076736003	8.9750004	-14.924	21.440001
276	6	7	0.076736003	10.252	-14.206	20.433001
277	6	5	-0.143106	8.243	-13.876	19.688
278	6	7	0.076736003	8.3479996	-14.78	19.054001
279	6	7	0.076736003	8.5139999	-13.006	19.052999
280	6	5	-0.143106	6.7849998	-13.749	20.164
281	6	7	0.076736003	6.5299997	-14.587	20.848
282	6	7	0.076736003	6.677	-12.801	20.733999
283	6	5	-0.143106	5.7870002	-13.702	18.996
284	6	7	0.076736003	6.164	-13.021	18.201
285	6	7	0.076736003	4.8389997	-13.274	19.385
286	6	5	-0.143106	5.4970002	-15.095	18.412001
287	6	7	0.076736003	6.4499998	-15.577	18.111
288	6	7	0.076736003	5.039	-15.745	19.188
289	6	5	-0.143106	4.599	-15.046	17.162001
290	6	7	0.076736003	5.105	-14.439	16.379
291	6	7	0.076736003	4.5	-16.077	16.757
292	6	5	-0.143106	3.191	-14.469	17.395
293	6	7	0.076736003	2.6589999	-14.479	16.419001
294	6	7	0.076736003	3.267	-13.409	17.712999
295	6	5	-0.144352	2.375	-15.278	18.419001
296	6	7	0.076736003	2.444	-16.358	18.165001
297	6	7	0.076736003	2.796	-15.14	19.438
298	6	5	-0.144768	0.889	-14.887	18.43
299	6	7	0.077460997	0.34799999	-15.619	19.068001
300	6	7	0.077460997	0.47600001	-14.966	17.400999
301	6	5	-0.148277	0.65600002	-13.473	18.985001
302	6	7	0.078386001	1.159	-13.377	19.972
303	6	7	0.078386001	1.094	-12.715	18.299999
304	6	5	0.020385001	-0.83499998	-13.169	19.172001
305	6	6	0.043462001	-0.93599999	-12.184	19.677999
306	6	6	0.043462001	-1.303	-13.927	19.837
307	6	3	-0.47505501	-1.5190001	-13.102	17.881001
308	6	4	0.31709701	-1.33	-12.284	17.257999
309	6	1	0.77841997	-2.346	-14.156	17.378
310	6	2	-0.64651	-2.5550001	-15.198	18.055
311	14	8	-0.505229	-2.779	-14.065	16.440001
312	14	5	0.109818	-4.1409998	-14.364	16.589001
313	14	6	0.073880002	-4.5079999	-14.801	15.636
314	14	6	0.073880002	-4.303	-15.126	17.386
315	14	5	-0.142377	-4.947	-13.097	16.886999
316	14	7	0.082079001	-4.7540002	-12.345	16.091
317	14	7	0.082079001	-6.0279999	-13.355	16.863001
318	14	5	-0.143291	-4.5999999	-12.504	18.26
319	14	7	0.078423999	-4.7530003	-13.284	19.035999
320	14	7	0.078423999	-3.5310001	-12.196	18.27
321	14	5	-0.144439	-5.4809999	-11.284	18.566999
322	14	7	0.076736003	-5.3699999	-10.548	17.74
323	14	7	0.076736003	-6.5500002	-11.586	18.606001
324	14	5	-0.143106	-5.0910001	-10.584	19.879
325	14	7	0.076736003	-3.997	-10.384	19.888
326	14	7	0.076736003	-5.6079998	-9.6020002	19.898001
327	14	5	-0.143106	-5.487	-11.397	21.124001
328	14	7	0.076736003	-4.9200001	-12.352	21.125
329	14	7	0.076736003	-6.5690002	-11.648	21.091
330	14	5	-0.143106	-5.1599998	-10.662	22.434
331	14	7	0.076736003	-5.145	-11.42	23.246
332	14	7	0.076736003	-4.1459999	-10.211	22.372999
333	14	5	-0.143106	-6.2030001	-9.5860004	22.783001
334	14	7	0.076736003	-7.1950002	-10.058	22.945
335	14	7	0.076736003	-6.316	-8.8889999	21.927
336	14	5	-0.143106	-5.8059998	-8.7410002	24.006001
337	14	7	0.076736003	-6.5679998	-7.9429998	24.148001
338	14	7	0.076736003	-4.842	-8.2299995	23.790001
339	14	5	-0.143106	-5.6589999	-9.5240002	25.323999
340	14	7	0.076736003	-5.3249998	-8.802	26.097
341	14	7	0.076736003	-4.8579998	-10.287	25.231001
342	14	5	-0.143106	-6.9710002	-10.189	25.775
343	14	7	0.076736003	-7.7989998	-9.4460001	25.773001
344	14	7	0.076736003	-7.2319999	-10.989	25.051001
345	14	5	-0.143106	-6.8540001	-10.841	27.163
346	14	7	0.076736003	-5.895	-11.398	27.24
347	14	7	0.076736003	-7.6809998	-11.576	27.256001
348	14	5	-0.143106	-6.9700003	-9.8170004	28.306
349	14	7	0.076736003	-6.2150002	-9.0170002	28.164
350	14	7	0.076736003	-7.9650002	-9.3249998	28.277
351	14	5	-0.143106	-6.7189999	-10.437	29.691999
352	14	7	0.076736003	-5.6929998	-10.865	29.712
353	14	7	0.076736003	-6.743	-9.625	30.452
354	14	5	-0.143106	-7.7150002	-11.535	30.111
355	14	7	0.076736003	-7.382	-11.916	31.098
356	14	7	0.076736003	-7.6669998	-12.389	29.403
357	14	5	-0.143106	-9.1599998	-11.021	30.222
358	14	7	0.076736003	-9.198	-10.12	30.872999
359	14	7	0.076736003	-9.5130005	-10.724	29.212999
360	14	5	-0.144439	-10.129	-12.091	30.750999
361	14	7	0.076736003	-11.159	-11.761	30.500999
362	14	7	0.076736003	-9.9499998	-13.055	30.228001
363	14	5	-0.143291	-10.021	-12.287	32.272999
364	14	7	0.078423999	-8.993	-12.618	32.528999
365	14	7	0.078423999	-10.203	-11.323	32.796001
366	14	5	-0.142377	-10.995	-13.355	32.799
367	14	7	0.082079001	-10.923	-14.275	32.179001
368	14	7	0.082079001	-10.688	-13.623	33.834
369	14	5	0.109818	-12.448	-12.866	32.835999
370	14	6	0.073880002	-12.523	-11.913	33.409
371	14	6	0.073880002	-12.811	-12.677	31.805
372	14	8	-0.505229	-13.271	-13.843	33.412998
373	7	1	0.77841997	-13.122	-13.79	34.438999
374	7	2	-0.64651	-12	-13.429	34.882999
375	7	3	-0.47505501	-14.189	-14.135	35.327999
376	7	4	0.31709701	-15.08	-14.494	34.917
377	7	5	0.020385001	-14.056	-14.079	36.783001
378	7	6	0.043462001	-13.101	-14.561	37.091
379	7	6	0.043462001	-14.892	-14.65	37.243999
380	7	5	-0.148277	-14.107	-12.628	37.27
381	7	7	0.078386001	-13.279	-12.059	36.798
382	7	7	0.078386001	-15.073	-12.174	36.957001
383	7	5	-0.144768	-13.975	-12.555	38.798
384	7	7	0.077460997	-14.754	-13.202	39.257
385	7	7	0.077460997	-12.991	-12.959	39.115002
386	7	5	-0.144352	-14.171	-11.131	39.348
387	7	7	0.076736003	-15.187	-10.777	39.068001
388	7	7	0.076736003	-14.15	-11.171	40.458
389	7	5	-0.143106	-13.143	-10.093	38.854
390	7	7	0.076736003	-13.379	-9.1140003	39.320999
391	7	7	0.076736003	-13.27	-9.9429998	37.761002
392	7	5	-0.143106	-11.67	-10.45	39.132
393	7	7	0.076736003	-11.398	-11.362	38.560001
394	7	7	0.076736003	-11.026	-9.6420002	38.727001
395	7	5	-0.143106	-11.328	-10.677999	40.618
396	7	7	0.076736003	-10.25	-10.932	40.698002
397	7	7	0.076736003	-11.875	-11.572001	40.986
398	7	5	-0.143106	-11.645	-9.493	41.551998
399	7	7	0.076736003	-11.331	-9.7659998	42.583
400	7	7	0.076736003	-12.745	-9.3409996	41.591999
401	7	5	-0.143106	-10.976	-8.1610003	41.167
402	7	7	0.076736003	-11.335	-7.395	41.884998
403	7	7	0.076736003	-11.311	-7.8379998	40.159
404	7	5	-0.143106	-9.4399996	-8.2299995	41.216
405	7	7	0.076736003	-9.1029997	-8.6099997	42.206001
406	7	7	0.076736003	-9.0880003	-8.9440002	40.442001
407	7	5	-0.143106	-8.7799997	-6.8709998	40.924
408	7	7	0.076736003	-9.2790003	-6.3860002	40.056999
409	7	7	0.076736003	-7.724	-7.0679998	40.640999
410	7	5	-0.143106	-8.7980003	-5.9330001	42.144001
411	7	7	0.076736003	-9.842	-5.809	42.5
412	7	7	0.076736003	-8.224	-6.3850002	42.98
413	7	5	-0.143106	-8.257	-4.527	41.826
414	7	7	0.076736003	-8.8830004	-4.073	41.027
415	7	7	0.076736003	-8.375	-3.891	42.73
416	7	5	-0.143106	-6.7849998	-4.4840002	41.377998
417	7	7	0.076736003	-6.5299997	-3.4219999	41.169998
418	7	7	0.076736003	-6.665	-5.039	40.424999
419	7	5	-0.144352	-5.8190002	-5.0320001	42.443001
420	7	7	0.076736003	-6.0630002	-4.572	43.424999
421	7	7	0.076736003	-5.9429998	-6.132	42.541
422	7	5	-0.144768	-4.349	-4.7179999	42.124001
423	7	7	0.077460997	-3.7390001	-5	43.009998
424	7	7	0.077460997	-4.2290001	-3.6240001	41.966
425	7	5	-0.148277	-3.8340001	-5.4879999	40.896999
426	7	7	0.078386001	-4.0500002	-6.572	41.026001
427	7	7	0.078386001	-4.3540001	-5.1399999	39.98
428	7	5	0.020385001	-2.323	-5.3179998	40.706001
429	7	6	0.043462001	-1.9909999	-5.9819999	39.880001
430	7	6	0.043462001	-1.779	-5.6389999	41.620998
431	7	3	-0.47505501	-1.995	-3.9359999	40.352001
432	7	4	0.31709701	-2.2539999	-3.5899999	39.401001
433	7	1	0.77841997	-1.441	-3	41.284
434	7	2	-0.64651	-1.173	-3.342	42.466999
435	15	8	-0.505229	-1.261	-2.0239999	40.983002
436	15	5	0.109818	0.055	-1.7179999	41.362
437	15	6	0.073880002	0.113	-0.62900001	41.567001
438	15	6	0.073880002	0.338	-2.247	42.300999
439	15	5	-0.142377	1.0369999	-2.0569999	40.237999
440	15	7	0.082079001	0.722	-1.5350001	39.306999
441	15	7	0.082079001	2.0420001	-1.677	40.522999
442	15	5	-0.143291	1.123	-3.569	39.985001
443	15	7	0.078423999	1.391	-4.0770001	40.936001
444	15	7	0.078423999	0.132	-3.944	39.646999
445	15	5	-0.144439	2.175	-3.885	38.910999
446	15	7	0.076736003	1.9300001	-3.3080001	37.992001
447	15	7	0.076736003	3.1800001	-3.556	39.255001
448	15	5	-0.143106	2.2149999	-5.375	38.536999
449	15	7	0.076736003	1.188	-5.7319999	38.304001
450	15	7	0.076736003	2.8180001	-5.4699998	37.611
451	15	5	-0.143106	2.8340001	-6.2459998	39.644001
452	15	7	0.076736003	2.1919999	-6.191	40.548
453	15	7	0.076736003	3.839	-5.8590002	39.922001
454	15	5	-0.143106	2.938	-7.7259998	39.238998
455	15	7	0.076736003	3.0569999	-8.3190002	40.171001
456	15	7	0.076736003	1.9960001	-8.052	38.748001
457	15	5	-0.143106	4.1420002	-8.0030003	38.321999
458	15	7	0.076736003	5.0879998	-7.7729998	38.856998
459	15	7	0.076736003	4.0999999	-7.329	37.441002
460	15	5	-0.143106	4.1669998	-9.4460001	37.785999
461	15	7	0.076736003	5.0180001	-9.5450001	37.076
462	15	7	0.076736003	3.2390001	-9.6260004	37.201
463	15	5	-0.143106	4.2880001	-10.542	38.860001
464	15	7	0.076736003	4.243	-11.519	38.335999
465	15	7	0.076736003	3.4159999	-10.506	39.546001
466	15	5	-0.143106	5.5960002	-10.45	39.665001
467	15	7	0.076736003	6.467	-10.385	38.977001
468	15	7	0.076736003	5.5749998	-9.5220003	40.273998
469	15	5	-0.143106	5.7779999	-11.633	40.630001
470	15	7	0.076736003	4.8190002	-11.847	41.152
471	15	7	0.076736003	6.5190001	-11.326	41.397999
472	15	5	-0.143106	6.2930002	-12.898	39.922001
473	15	7	0.076736003	5.6139998	-13.154	39.083
474	15	7	0.076736003	7.2909999	-12.705	39.476002
475	15	5	-0.143106	6.348	-14.124	40.851002
476	15	7	0.076736003	5.3239999	-14.331	41.230999
477	15	7	0.076736003	6.6529999	-15.009	40.25
478	15	5	-0.143106	7.2989998	-13.992	42.055
479	15	7	0.076736003	7.197	-14.922	42.653
480	15	7	0.076736003	6.9809999	-13.153	42.709
481	15	5	-0.143106	8.7690001	-13.811	41.639999
482	15	7	0.076736003	9.0690002	-14.61	40.926998
483	15	7	0.076736003	8.8760004	-12.836	41.119999
484	15	5	-0.144439	9.7259998	-13.796	42.844002
485	15	7	0.076736003	10.684	-13.35	42.502998
486	15	7	0.076736003	9.3179998	-13.141	43.643002
487	15	5	-0.143291	9.9980001	-15.204	43.401001
488	15	7	0.078423999	9.0439997	-15.654	43.743
489	15	7	0.078423999	10.409	-15.858	42.601002
490	15	5	-0.142377	10.959	-15.186	44.601002
491	15	7	0.082079001	10.633	-14.421	45.339001
492	15	7	0.082079001	10.906	-16.177999	45.102001
493	15	5	0.109818	12.414	-14.926	44.192001
494	15	6	0.073880002	12.734	-15.654	43.410999
495	15	6	0.073880002	12.514	-13.905	43.771
496	15	8	-0.505229	13.253	-15.018	45.312
497	8	1	0.77841997	13.383	-16.028999	45.504002
498	8	2	-0.64651	12.459	-16.837	45.220001
499	8	3	-0.47505501	14.603	-16.487	46.097
500	8	4	0.31709701	15.314	-15.775	46.377998
501	8	5	0.020385001	14.859	-17.895	46.391998
502	8	6	0.043462001	13.974	-18.34	46.896999
503	8	6	0.043462001	15.723	-17.966	47.09
504	8	5	-0.148277	15.186	-18.660999	45.105999
505	8	7	0.078386001	14.328	-18.577	44.408001
506	8	7	0.078386001	16.079	-18.202	44.627998
507	8	5	-0.144768	15.465	-20.142	45.403999
508	8	7	0.077460997	16.264999	-20.209	46.173
509	8	7	0.077460997	14.561	-20.621	45.834999
510	8	5	-0.144352	15.944	-20.921	44.165001
511	8	7	0.076736003	16.882999	-20.455999	43.792999
512	8	7	0.076736003	16.208	-21.954	44.473999
513	8	5	-0.143106	14.936	-20.976	42.999001
514	8	7	0.076736003	15.386	-21.566	42.173
515	8	7	0.076736003	14.789	-19.954	42.591999
516	8	5	-0.143106	13.558	-21.566	43.355999
517	8	7	0.076736003	13.053	-20.902	44.09
518	8	7	0.076736003	12.917	-21.547001	42.449001
519	8	5	-0.143106	13.593	-22.997	43.926998
520	8	7	0.076736003	12.552	-23.315001	44.151001
521	8	7	0.076736003	14.12	-22.989	44.903999
522	8	5	-0.143106	14.263	-24.047001	43.018002
523	8	7	0.076736003	14.201	-25.035999	43.521999
524	8	7	0.076736003	15.345	-23.813999	42.923
525	8	5	-0.143106	13.658	-24.172001	41.606998
526	8	7	0.076736003	14.27	-24.915001	41.054001
527	8	7	0.076736003	13.751	-23.209999	41.062
528	8	5	-0.143106	12.189	-24.629	41.626999
529	8	7	0.076736003	12.085	-25.562	42.223999
530	8	7	0.076736003	11.576	-23.843	42.117001
531	8	5	-0.143106	11.621	-24.844	40.214001
532	8	7	0.076736003	11.924	-24.004	39.551998
533	8	7	0.076736003	10.513	-24.827999	40.294998
534	8	5	-0.143106	12.053	-26.188	39.603001
535	8	7	0.076736003	13.161	-26.259001	39.610001
536	8	7	0.076736003	11.673	-27.027	40.223
537	8	5	-0.143106	11.597	-26.356001	38.141998
538	8	7	0.076736003	12.037	-25.538	37.530998
539	8	7	0.076736003	12.011	-27.311001	37.75
540	8	5	-0.143106	10.071	-26.356001	37.933998
541	8	7	0.076736003	9.882	-26.471001	36.844002
542	8	7	0.076736003	9.6499996	-25.375	38.235001
543	8	5	-0.144352	9.3649998	-27.496	38.688
544	8	7	0.076736003	9.9029999	-28.448999	38.492001
545	8	7	0.076736003	9.3959999	-27.308001	39.783001
546	8	5	-0.144768	7.9039998	-27.677	38.249001
547	8	7	0.077460997	7.5190001	-28.611	38.715
548	8	7	0.077460997	7.8600001	-27.806999	37.146
549	8	5	-0.148277	7.0100002	-26.502001	38.676998
550	8	7	0.078386001	7.138	-26.319	39.765999
551	8	7	0.078386001	7.3059998	-25.577999	38.134998
552	8	5	0.020385001	5.527	-26.781	38.407001
553	8	6	0.043462001	4.9250002	-25.951	38.835999
554	8	6	0.043462001	5.21	-27.715	38.919998
555	8	3	-0.47505501	5.2639999	-26.851	36.969002
556	8	4	0.31709701	5.3000002	-25.966999	36.411999
557	8	1	0.77841997	5.072	-28.084	36.268002
558	8	2	-0.64651	5.086	-29.187	36.876999
559	16	8	-0.505229	4.921	-28.072001	35.242001
560	16	5	0.109818	3.789	-28.860001	34.987
561	16	6	0.073880002	3.8989999	-29.312	33.979
562	16	6	0.073880002	3.7059999	-29.697001	35.717999
563	16	5	-0.142377	2.5180001	-28.006001	35.002998
564	16	7	0.082079001	2.632	-27.166	34.283001
565	16	7	0.082079001	1.6670001	-28.636999	34.665001
566	16	5	-0.143291	2.2130001	-27.455	36.403
567	16	7	0.078423999	2.1500001	-28.304001	37.117001
568	16	7	0.078423999	3.0369999	-26.781	36.723
569	16	5	-0.144439	0.89099997	-26.673	36.407001
570	16	7	0.076736003	0.94599998	-25.875999	35.633999
571	16	7	0.076736003	0.048999999	-27.347	36.133999
572	16	5	-0.143106	0.60100001	-26.000999	37.758999
573	16	7	0.076736003	1.488	-25.417999	38.087002
574	16	7	0.076736003	-0.23	-25.283001	37.601002
575	16	5	-0.143106	0.204	-27.011999	38.848999
576	16	7	0.076736003	1.062	-27.691	39.041
577	16	7	0.076736003	-0.64899999	-27.636999	38.502998
578	16	5	-0.143106	-0.155	-26.330999	40.18
579	16	7	0.076736003	-0.088	-27.101999	40.977001
580	16	7	0.076736003	0.588	-25.537001	40.411999
581	16	5	-0.143106	-1.5780001	-25.746	40.178001
582	16	7	0.076736003	-2.323	-26.559999	40.049
583	16	7	0.076736003	-1.697	-25.063	39.312
584	16	5	-0.143106	-1.891	-24.929001	41.445
585	16	7	0.076736003	-2.9029999	-24.48	41.334999
586	16	7	0.076736003	-1.171	-24.084999	41.512001
587	16	5	-0.143106	-1.8410001	-25.721001	42.764
588	16	7	0.076736003	-2.036	-25	43.584999
589	16	7	0.076736003	-0.82200003	-26.127001	42.931
590	16	5	-0.143106	-2.878	-26.856001	42.820999
591	16	7	0.076736003	-3.8870001	-26.469999	42.556999
592	16	7	0.076736003	-2.6029999	-27.628	42.070999
593	16	5	-0.143106	-2.9229999	-27.544001	44.195999
594	16	7	0.076736003	-1.89	-27.716999	44.567001
595	16	7	0.076736003	-3.404	-28.535	44.056999
596	16	5	-0.143106	-3.734	-26.740999	45.229