Title

828 atoms
827 bonds
1580 angles
2922 dihedrals
156 impropers

12 atom types
15 bond types
10 angle types
36 dihedral types
3 improper types
-10.80799961 89.19200039 xlo xhi
-5.337999821 94.66200018 ylo yhi
-11.9630003 88.0369997 zlo zhi
0.0 0.0 0.0 xy xz yz

Masses

1	12.01078
2	15.99943
3	14.00672
4	1.007947
5	12.01078
6	1.007947
7	1.007947
8	15.99943
9	1.007947
10	15.99943
11	1.007947
12	12.01078


Pair Coeffs

1	0.086879315	3.4806469
2	0.2102061	3.0398122
3	0.16769152	3.206876
4	0.014090815	1.1034277
5	0.10884061	3.3795318
6	0.016409246	2.5832257
7	0.015779483	2.6445434
8	0.16846514	3.0251065
9	0.015611343	2.5725815
10	0.20947353	2.99716
11	1.2326e-05	0.53453923
12	0.21	3.3996695

Bond Coeffs

1 harmonic	582.698766451	1.225198386222
2 harmonic	492.76746816345	1.381897776683
3 harmonic	301.15400723785	1.345741232799
4 harmonic	505.144496193	1.019481865027
5 harmonic	352.0565580496	1.450098586273
6 harmonic	370.04670688625	1.093899492634
7 harmonic	264.62148576755	1.52190126495
8 harmonic	366.7408841747	1.425895053732
9 harmonic	289.73813263395	1.498646816465
10 harmonic	397.2545789619	1.085358495916
11 harmonic	399.1592953295	1.371688562017
12 harmonic	329.96998057905	1.427343958716
13 harmonic	543.5267831885	0.9716763312559
14 harmonic	366.34047229585	1.464762957261
15 harmonic	602.81384337	1.196112346392


Angle Coeffs

1 harmonic	63.44422595415	115.5071327674
2 harmonic	55.42182150775	117.3465570514
3 harmonic	65.09061609600001	110.3538806181
4 harmonic	57.8982893754	126.8062420451
5 harmonic	201.41175231035	127.4691416191
6 harmonic	53.20531626545	116.5475862634
7 harmonic	48.776492647595	115.6030999533
8 harmonic	34.066775159195	129.1835929926
9 harmonic	55.07882548015	112.8714009681
10 harmonic	33.56981613361	180


Dihedral Coeffs

1 fourier 1	0.182238503271	2	0
2 fourier 1	0.02972342374561	3	0
3 fourier 1	-0.1488678166443	4	180
4 fourier 1	-0.1230328948768	3	180
5 fourier 1	0.2939295466901	2	0
6 fourier 1	-0.3024127022865	1	0
7 fourier 1	0.0473758381877	3	0
8 fourier 1	0.1918272375143	3	0
9 fourier 1	0.9202179876409	1	180
10 fourier 1	0.4860993122944	2	180
11 fourier 1	0.8916986138746	1	0
12 fourier 1	1.809047390003	2	180
13 fourier 1	-0.04816277792592	1	0
14 fourier 1	1.163809172478	2	180
15 fourier 1	0.1679186987369	1	180
16 fourier 1	2.779853741805	2	180
17 fourier 1	0.1155372516788	3	0
18 fourier 1	0.1040663847541	3	0
19 fourier 1	0.09223874044423	3	0
20 fourier 1	0.3159935921949	2	180
21 fourier 1	0.3247796806857	1	180
22 fourier 1	0.1911926717192	3	0
23 fourier 1	0.1115525666802	3	0
24 fourier 1	0.3432490222662	1	0
25 fourier 1	0.02664938770063	3	0
26 fourier 1	-0.3703352413219	2	0
27 fourier 1	5.294842998052	2	180
28 fourier 1	5.082239018622	2	180
29 fourier 1	1.654695451548	1	180
30 fourier 1	0.2962286176719	3	180
31 fourier 1	0.007435022645929	1	0
32 fourier 1	0.3445382149273	3	0
33 fourier 1	0.1364556373303	1	0
34 fourier 1	0.3026390167484	3	0
35 fourier 1	-1.382973039546	1	0
36 fourier 1	0	1	0


Improper Coeffs

1 0.3333333333333333	-1	2
2 3.5	-1	2
3 0.3666666666666667	-1	2


Atoms

1	4	1	0.776353	-5.9130001	1.66	-0.428
2	4	2	-0.655608	-5.7719998	2.0009999	-1.632
3	4	3	-0.47651899	-4.7779999	1.5	0.42899999
4	4	4	0.31685501	-4.9450002	1.28	1.437
5	4	5	0.020252001	-3.405	1.704	-0.028999999
6	4	6	0.043086	-2.7309999	1.8	0.84899998
7	4	6	0.043086	-3.3380001	2.6589999	-0.59200001
8	4	5	-0.148384	-2.9319999	0.54699999	-0.92199999
9	4	7	0.078111999	-3.5420001	0.537	-1.851
10	4	7	0.078111999	-1.885	0.73500001	-1.24
11	4	5	-0.144871	-3.04	-0.84100002	-0.25999999
12	4	7	0.077193998	-4.1090002	-1.057	-0.046
13	4	7	0.077193998	-2.7119999	-1.61	-0.991
14	4	5	-0.144454	-2.2409999	-1.005	1.048
15	4	7	0.076471001	-2.3740001	-2.0469999	1.411
16	4	7	0.076471001	-2.674	-0.345	1.83
17	4	5	-0.143208	-0.73500001	-0.71100003	0.92900002
18	4	7	0.076471001	-0.285	-0.84399998	1.937
19	4	7	0.076471001	-0.57999998	0.34900001	0.63999999
20	4	5	-0.143208	-0.023	-1.647	-0.063000001
21	4	7	0.076471001	-0.36000001	-1.4349999	-1.1
22	4	7	0.076471001	-0.294	-2.6989999	0.17399999
23	4	5	-0.144454	1.507	-1.524	0.0060000001
24	4	7	0.076471001	1.841	-1.6849999	1.053
25	4	7	0.076471001	1.944	-2.3340001	-0.61799997
26	4	5	-0.144871	2.0120001	-0.164	-0.50999999
27	4	7	0.077193998	1.71	0.64700001	0.18700001
28	4	7	0.077193998	1.544	0.045000002	-1.4960001
29	4	5	-0.148384	3.5369999	-0.132	-0.69400001
30	4	7	0.078111999	3.796	0.80400002	-1.234
31	4	7	0.078111999	3.8610001	-0.98400003	-1.331
32	4	5	0.020252001	4.2940001	-0.16599999	0.63999999
33	4	6	0.043086	3.934	0.639	1.316
34	4	6	0.043086	4.1149998	-1.141	1.142
35	4	3	-0.47531	5.7309999	-0.016000001	0.41600001
36	4	4	0.31685501	6.3499999	-0.847	0.54100001
37	4	1	0.77820301	6.3390002	1.244	0.113
38	4	2	-0.64752698	5.6479998	2.2939999	0.028999999
39	12	8	-0.50544298	7.3649998	1.296	-0.034000002
40	12	5	0.109685	7.9460001	0.60100001	1.034
41	12	6	0.073524997	7.6059999	-0.458	1.016
42	12	6	0.073524997	7.6339998	1.056	2.0020001
43	12	5	-0.14248601	9.4709997	0.63099998	0.91600001
44	12	7	0.081798002	9.8870001	-0.034000002	1.702
45	12	7	0.081798002	9.7679996	0.229	-0.077
46	12	5	-0.14339501	10.027	2.052	1.096
47	12	7	0.078156002	9.5150003	2.7349999	0.38499999
48	12	7	0.078156002	9.8009996	2.4230001	2.119
49	12	5	-0.144541	11.538	2.1440001	0.81599998
50	12	7	0.076471001	11.849	3.2090001	0.89999998
51	12	7	0.076471001	11.728	1.835	-0.235
52	12	5	-0.143107	12.425	1.294	1.744
53	12	7	0.076471001	13.479	1.431	1.4170001
54	12	7	0.076471001	12.187	0.21600001	1.624
55	12	5	-0.135994	12.308	1.698	3.221
56	12	7	0.074606001	11.293	1.448	3.596
57	12	7	0.074606001	12.464	2.7950001	3.3139999
58	12	5	-0.13397899	13.346	0.95700002	4.0770001
59	12	7	0.076185003	14.372	1.207	3.7290001
60	12	7	0.076185003	13.204	-0.138	3.95
61	12	5	-0.090552002	13.208	1.289	5.5710001
62	12	7	0.074162997	13.896	0.64099997	6.1570001
63	12	7	0.074162997	12.173	1.061	5.9039998
64	12	1	-0.084321998	13.515	2.7320001	5.8670001
65	12	9	0.125818	12.701	3.3800001	6.1789999
66	12	1	-0.091179997	14.762	3.22	5.7740002
67	12	9	0.12902801	15.573	2.572	5.4530001
68	12	5	-0.116702	15.071	4.665	6.0609999
69	12	7	0.095668003	16.049	4.9029999	5.5910001
70	12	7	0.095668003	14.306	5.3200002	5.5890002
71	12	5	0.16263901	15.163	4.9380002	7.5760002
72	12	6	0.075112998	15.909	4.2340002	8.0080004
73	12	8	-0.50792199	13.926	4.7049999	8.2049999
74	12	5	-0.14517701	15.652	6.3759999	7.8449998
75	12	7	0.086576998	16.625	6.5310001	7.3280001
76	12	7	0.086576998	14.921	7.1030002	7.428
77	12	5	-0.140672	15.841	6.6409998	9.3450003
78	12	7	0.077321	16.570999	5.9099998	9.757
79	12	7	0.077321	14.868	6.5	9.8620005
80	12	5	-0.144059	16.351	8.0679998	9.5909996
81	12	7	0.076471001	15.601	8.8059998	9.2309999
82	12	7	0.076471001	17.283001	8.2220001	9.0039997
83	12	5	-0.14808001	16.674999	8.335	11.07
84	12	7	0.077316999	17.347	7.5380001	11.458
85	12	7	0.077316999	17.226999	9.2989998	11.131
86	12	5	-0.142094	15.415	8.4300003	11.943
87	12	7	0.066689	14.72	9.1890001	11.522
88	12	7	0.066689	14.895	7.4499998	11.971
89	12	5	-0.129512	15.768	8.8269997	13.374
90	12	7	0.042176999	16.450001	8.0749998	13.826
91	12	7	0.042176999	16.259001	9.823	13.389
92	12	7	0.042176999	14.842	8.8789997	13.985
93	5	1	0.776353	13.242	5.3759999	7.8070002
94	5	2	-0.655608	12.242	5.7189999	8.4919996
95	5	3	-0.47651899	13.451	5.9060001	6.494
96	5	4	0.31685501	14.327	5.6459999	5.9889998
97	5	5	0.020252001	12.529	6.8509998	5.8649998
98	5	6	0.043086	13.024	7.3280001	4.993
99	5	6	0.043086	12.284	7.665	6.5809999
100	5	5	-0.148384	11.234	6.1570001	5.4130001
101	5	7	0.078111999	10.693	5.7870002	6.3099999
102	5	7	0.078111999	10.568	6.9050002	4.934
103	5	5	-0.144871	11.461	4.967	4.4619999
104	5	7	0.077193998	12.04	4.1820002	4.9949999
105	5	7	0.077193998	10.477	4.5120001	4.2210002
106	5	5	-0.144454	12.2	5.309	3.152
107	5	7	0.076471001	12.276	4.382	2.5420001
108	5	7	0.076471001	13.241	5.6149998	3.3859999
109	5	5	-0.143208	11.538	6.4070001	2.302
110	5	7	0.076471001	12.176	6.5710001	1.406
111	5	7	0.076471001	11.521	7.3610001	2.868
112	5	5	-0.143208	10.119	6.0300002	1.842
113	5	7	0.076471001	9.4300003	5.9959998	2.7130001
114	5	7	0.076471001	10.143	5.0149999	1.3890001
115	5	5	-0.144454	9.5609999	7.006	0.79500002
116	5	7	0.076471001	10.274	7.0799999	-0.054000001
117	5	7	0.076471001	8.6110001	6.5809999	0.403
118	5	5	-0.144871	9.283	8.4029999	1.38
119	5	7	0.077193998	10.239	8.9060001	1.64
120	5	7	0.077193998	8.6929998	8.2919998	2.316
121	5	5	-0.148384	8.4840002	9.2969999	0.41999999
122	5	7	0.078111999	8.1709995	10.205	0.97899997
123	5	7	0.078111999	7.559	8.7729998	0.093000002
124	5	5	0.020252001	9.2989998	9.7209997	-0.80900002
125	5	6	0.043086	10.26	10.187	-0.50099999
126	5	6	0.043086	9.5340004	8.8260002	-1.424
127	5	3	-0.47531	8.5360003	10.661	-1.628
128	5	4	0.31685501	8.1470003	10.334	-2.5409999
129	5	1	0.77820301	8.3690004	12.038	-1.274
130	5	2	-0.64752698	8.8859997	12.504	-0.22400001
131	13	8	-0.50544298	7.8200002	12.664	-1.892
132	13	5	0.109685	8.2969999	12.442	-3.191
133	13	6	0.073524997	8.1289997	11.378	-3.47
134	13	6	0.073524997	9.3900003	12.652	-3.2390001
135	13	5	-0.14248601	7.5539999	13.335	-4.1859999
136	13	7	0.081798002	7.8660002	13.039	-5.21
137	13	7	0.081798002	6.46	13.159	-4.0879998
138	13	5	-0.14339501	7.8699999	14.822	-3.961
139	13	7	0.078156002	7.6680002	15.08	-2.8989999
140	13	7	0.078156002	8.9499998	15.013	-4.1399999
141	13	5	-0.144541	7.0110002	15.756	-4.8330002
142	13	7	0.076471001	7.25	16.808001	-4.5640001
143	13	7	0.076471001	5.9400001	15.594	-4.5840001
144	13	5	-0.143107	7.1929998	15.579	-6.3520002
145	13	7	0.076471001	6.5009999	16.288	-6.8569999
146	13	7	0.076471001	6.8889999	14.556	-6.6589999
147	13	5	-0.135994	8.6260004	15.866	-6.822
148	13	7	0.074606001	9.3109999	15.087	-6.4250002
149	13	7	0.074606001	8.948	16.857	-6.4330001
150	13	5	-0.13397899	8.7130003	15.864	-8.3549995
151	13	7	0.076185003	8.0459995	16.649	-8.7740002
152	13	7	0.076185003	8.3570004	14.881	-8.7360001
153	13	5	-0.090552002	10.149	16.08	-8.8549995
154	13	7	0.074162997	10.179	15.95	-9.9580002
155	13	7	0.074162997	10.813	15.306	-8.4119997
156	13	1	-0.084321998	10.678	17.445	-8.5039997
157	13	9	0.125818	11.475	17.516001	-7.7690001
158	13	1	-0.091179997	10.203	18.555	-9.0880003
159	13	9	0.12902801	9.3999996	18.481001	-9.816
160	13	5	-0.116702	10.724	19.922001	-8.7329998
161	13	7	0.095668003	9.9689999	20.669001	-9.0609999
162	13	7	0.095668003	10.828	20.016001	-7.6290002
163	13	5	0.16263901	12.064	20.222	-9.434
164	13	6	0.075112998	11.92	20.076	-10.528
165	13	8	-0.50792199	13.067	19.334	-9.0019999
166	13	5	-0.14517701	12.49	21.684999	-9.1990004
167	13	7	0.086576998	11.674	22.360001	-9.54
168	13	7	0.086576998	12.648	21.858999	-8.1110001
169	13	5	-0.140672	13.775	22.033001	-9.9639997
170	13	7	0.077321	13.613	21.857	-11.05
171	13	7	0.077321	14.594	21.371	-9.6149998
172	13	5	-0.144059	14.169	23.5	-9.7379999
173	13	7	0.076471001	14.385	23.673	-8.6599998
174	13	7	0.076471001	13.31	24.15	-10.016
175	13	5	-0.14808001	15.377	23.927	-10.586
176	13	7	0.077316999	15.202	23.662001	-11.652
177	13	7	0.077316999	15.465	25.034	-10.525
178	13	5	-0.142094	16.691999	23.299	-10.1
179	13	7	0.066689	16.839001	23.518999	-9.0200005
180	13	7	0.066689	16.663	22.198	-10.237
181	13	5	-0.129512	17.884001	23.848	-10.88
182	13	7	0.042176999	17.771	23.627001	-11.963
183	13	7	0.042176999	17.966999	24.945999	-10.736
184	13	7	0.042176999	18.818001	23.371	-10.516
185	6	1	0.776353	13.205	19.489	-7.9850001
186	6	2	-0.655608	14.316	19.209	-7.4619999
187	6	3	-0.47651899	12.135	20.023001	-7.1989999
188	6	4	0.31685501	11.254	20.302	-7.6849999
189	6	5	0.020252001	12.251	20.261999	-5.7610002
190	6	6	0.043086	11.424	20.923	-5.4260001
191	6	6	0.043086	13.2	20.801001	-5.5489998
192	6	5	-0.148384	12.22	18.947001	-4.967
193	6	7	0.078111999	13.118	18.347	-5.2290001
194	6	7	0.078111999	12.302	19.172001	-3.8829999
195	6	5	-0.144871	10.971	18.084	-5.2329998
196	6	7	0.077193998	10.963	17.778999	-6.302
197	6	7	0.077193998	11.055	17.145	-4.6459999
198	6	5	-0.144454	9.6260004	18.767	-4.914
199	6	7	0.076471001	8.809	18.041	-5.1170001
200	6	7	0.076471001	9.4680004	19.615999	-5.612
201	6	5	-0.143208	9.4840002	19.278	-3.4690001
202	6	7	0.076471001	8.4879999	19.763	-3.3789999
203	6	7	0.076471001	10.246	20.059999	-3.2720001
204	6	5	-0.143208	9.5880003	18.152	-2.427
205	6	7	0.076471001	10.621	17.743	-2.404
206	6	7	0.076471001	8.9029999	17.325001	-2.717
207	6	5	-0.144454	9.1990004	18.618	-1.015
208	6	7	0.076471001	8.1859999	19.073	-1.046
209	6	7	0.076471001	9.1479998	17.721001	-0.361
210	6	5	-0.144871	10.212	19.615	-0.42399999
211	6	7	0.077193998	10.169	20.577999	-0.977
212	6	7	0.077193998	11.237	19.201	-0.542
213	6	5	-0.148384	9.9779997	19.878	1.072
214	6	7	0.078111999	10.846	20.454	1.457
215	6	7	0.078111999	9.9429998	18.915001	1.626
216	6	5	0.020252001	8.6920004	20.673	1.337
217	6	6	0.043086	8.6789999	21.608999	0.73699999
218	6	6	0.043086	7.8130002	20.063	1.04
219	6	3	-0.47531	8.5760002	20.997	2.757
220	6	4	0.31685501	7.8660002	20.492001	3.3329999
221	6	1	0.77820301	9.3380003	22.037001	3.3789999
222	6	2	-0.64752698	10.152	22.73	2.7119999
223	14	8	-0.50544298	9.2159996	22.228001	4.3909998
224	14	5	0.109685	7.8330002	22.298	4.6079998
225	14	6	0.073524997	7.3670001	21.323999	4.3390002
226	14	6	0.073524997	7.3850002	23.093	3.97
227	14	5	-0.14248601	7.5450001	22.591	6.0809999
228	14	7	0.081798002	6.448	22.511	6.237
229	14	7	0.081798002	8.0459995	21.823999	6.711
230	14	5	-0.14339501	8.0200005	23.997	6.4840002
231	14	7	0.078156002	9.092	24.108	6.2129998
232	14	7	0.078156002	7.46	24.767	5.9130001
233	14	5	-0.144541	7.8979998	24.26	7.9959998
234	14	7	0.076471001	8.323	25.264	8.2159996
235	14	7	0.076471001	8.5229998	23.518999	8.5410004
236	14	5	-0.143107	6.4650002	24.194	8.5550003
237	14	7	0.076471001	6.5240002	24.374001	9.651
238	14	7	0.076471001	6.0430002	23.176001	8.4160004
239	14	5	-0.135994	5.5300002	25.242001	7.9320002
240	14	7	0.074606001	5.3610001	24.999001	6.8610001
241	14	7	0.074606001	6.006	26.243999	8.0010004
242	14	5	-0.13397899	4.1739998	25.264999	8.6520004
243	14	7	0.076185003	4.3179998	25.523001	9.724
244	14	7	0.076185003	3.723	24.25	8.6070004
245	14	5	-0.090552002	3.1930001	26.254999	8.0059996
246	14	7	0.074162997	2.194	26.148001	8.4829998
247	14	7	0.074162997	3.073	26.006001	6.9289999
248	14	1	-0.084321998	3.652	27.683001	8.1350002
249	14	9	0.125818	3.964	28.208	7.2360001
250	14	1	-0.091179997	3.6630001	28.313999	9.3179998
251	14	9	0.12902801	3.358	27.784	10.216
252	14	5	-0.116702	4.1300001	29.739	9.4519997
253	14	7	0.095668003	4.3790002	29.917	10.521
254	14	7	0.095668003	5.0609999	29.892	8.8629999
255	14	5	0.16263901	3.04	30.74	9.0179996
256	14	6	0.075112998	2.1199999	30.521	9.6040001
257	14	8	-0.50792199	2.7349999	30.59	7.6529999
258	14	5	-0.14517701	3.471	32.188	9.3269997
259	14	7	0.086576998	3.714	32.271	10.41
260	14	7	0.086576998	4.388	32.437	8.7489996
261	14	5	-0.140672	2.3629999	33.195	8.9890003
262	14	7	0.077321	1.448	32.942001	9.5690002
263	14	7	0.077321	2.128	33.125	7.9060001
264	14	5	-0.144059	2.8010001	34.627998	9.3269997
265	14	7	0.076471001	3.684	34.909	8.7119999
266	14	7	0.076471001	3.109	34.667	10.395
267	14	5	-0.14808001	1.676	35.654999	9.1239996
268	14	7	0.077316999	0.759	35.320999	9.6590004
269	14	7	0.077316999	2.0020001	36.615002	9.5819998
270	14	5	-0.142094	1.357	35.897999	7.6409998
271	14	7	0.066689	2.2850001	36.178001	7.0970001
272	14	7	0.066689	0.94300002	34.974998	7.1830001
273	14	5	-0.129512	0.333	37.015999	7.4759998
274	14	7	0.042176999	-0.61199999	36.754002	7.9970002
275	14	7	0.042176999	0.72899997	37.967999	7.8899999
276	14	7	0.042176999	0.114	37.164001	6.3969998
277	7	1	0.776353	3.5940001	30.811001	7.1139998
278	7	2	-0.655608	3.4920001	31.224001	5.9289999
279	7	3	-0.47651899	4.8759999	30.650999	7.73
280	7	4	0.31685501	4.9120002	30.368999	8.7349997
281	7	5	0.020252001	6.131	30.936001	7.0339999
282	7	6	0.043086	6.9559999	31.011	7.7729998
283	7	6	0.043086	6.0599999	31.923	6.5289998
284	7	5	-0.148384	6.4580002	29.85	5.9970002
285	7	7	0.078111999	5.6820002	29.867001	5.2020001
286	7	7	0.078111999	7.4180002	30.099001	5.4990001
287	7	5	-0.144871	6.5190001	28.424999	6.5799999
288	7	7	0.077193998	5.5180001	28.153999	6.9790001
289	7	7	0.077193998	6.7249999	27.711	5.7540002
290	7	5	-0.144454	7.559	28.222	7.7010002
291	7	7	0.076471001	7.5279999	27.157	8.0170002
292	7	7	0.076471001	7.2639999	28.819	8.5900002
293	7	5	-0.143208	9.0050001	28.583	7.3179998
294	7	7	0.076471001	9.6429996	28.414	8.2119999
295	7	7	0.076471001	9.0690002	29.663	7.0710001
296	7	5	-0.143208	9.5410004	27.733999	6.1529999
297	7	7	0.076471001	9.0059996	27.989	5.2129998
298	7	7	0.076471001	9.3520002	26.66	6.3709998
299	7	5	-0.144454	11.052	27.916	5.9390001
300	7	7	0.076471001	11.585	27.709999	6.8920002
301	7	7	0.076471001	11.385	27.16	5.1939998
302	7	5	-0.144871	11.408	29.320999	5.4219999
303	7	7	0.077193998	11.221	30.079	6.2129998
304	7	7	0.077193998	10.754	29.566	4.5570002
305	7	5	-0.148384	12.868	29.426001	4.9549999
306	7	7	0.078111999	12.991	30.400999	4.4349999
307	7	7	0.078111999	13.09	28.625	4.217
308	7	5	0.020252001	13.867	29.349001	6.1170001
309	7	6	0.043086	13.619	30.101	6.8979998
310	7	6	0.043086	13.816	28.341999	6.5819998
311	7	3	-0.47531	15.229	29.570999	5.6350002
312	7	4	0.31685501	15.886	28.759001	5.5890002
313	7	1	0.77820301	15.731	30.868999	5.3010001
314	7	2	-0.64752698	15.005	31.892	5.415
315	15	8	-0.50544298	16.707001	30.971001	4.9660001
316	15	5	0.109685	17.502001	30.243	5.8610001
317	15	6	0.073524997	17.195999	29.173	5.8410001
318	15	6	0.073524997	17.368	30.629999	6.8959999
319	15	5	-0.14248601	18.975	30.341	5.4580002
320	15	7	0.081798002	19.554001	29.652	6.1079998
321	15	7	0.081798002	19.087999	30.007	4.4029999
322	15	5	-0.14339501	19.513	31.771999	5.618
323	15	7	0.078156002	18.854	32.472	5.059
324	15	7	0.078156002	19.476	32.076	6.6849999
325	15	5	-0.144541	20.938999	31.941999	5.0630002
326	15	7	0.076471001	21.228001	33.011002	5.1529999
327	15	7	0.076471001	20.933001	31.698999	3.9779999
328	15	5	-0.143107	22.011999	31.077999	5.7519999
329	15	7	0.076471001	22.98	31.275999	5.2399998
330	15	7	0.076471001	21.787001	30	5.612
331	15	5	-0.135994	22.167999	31.395	7.2459998
332	15	7	0.074606001	21.250999	31.083	7.79
333	15	7	0.074606001	22.306	32.491001	7.3759999
334	15	5	-0.13397899	23.372	30.650999	7.8429999
335	15	7	0.076185003	24.305	30.961	7.323
336	15	7	0.076185003	23.240999	29.559	7.677
337	15	5	-0.090552002	23.511999	30.893999	9.3529997
338	15	7	0.074162997	24.318001	30.243	9.757
339	15	7	0.074162997	22.566999	30.605	9.8620005
340	15	1	-0.084321998	23.827999	32.330002	9.6759996
341	15	9	0.125818	23.069	32.924999	10.176
342	15	1	-0.091179997	25.018	32.873001	9.3780003
343	15	9	0.12902801	25.771999	32.277	8.8710003
344	15	5	-0.116702	25.333	34.311001	9.6920004
345	15	7	0.095668003	26.195999	34.615002	9.0600004
346	15	7	0.095668003	24.473	34.959	9.4139996
347	15	5	0.16263901	25.705	34.502998	11.175
348	15	6	0.075112998	26.540001	33.806999	11.414
349	15	8	-0.50792199	24.618999	34.186001	12.011
350	15	5	-0.14517701	26.193001	35.943001	11.436
351	15	7	0.086576998	27.044001	36.166	10.755
352	15	7	0.086576998	25.375	36.661999	11.211
353	15	5	-0.140672	26.658001	36.132	12.887
354	15	7	0.077321	27.475	35.41	13.107
355	15	7	0.077321	25.806	35.923	13.569
356	15	5	-0.144059	27.163	37.563	13.12
357	15	7	0.076471001	26.337	38.289001	12.954
358	15	7	0.076471001	27.961	37.786999	12.378
359	15	5	-0.14808001	27.756001	37.761002	14.524
360	15	7	0.077316999	28.513	36.972	14.729
361	15	7	0.077316999	28.280001	38.742001	14.54
362	15	5	-0.142094	26.684	37.756001	15.625
363	15	7	0.066689	25.899	38.507	15.391
364	15	7	0.066689	26.208	36.755001	15.689
365	15	5	-0.129512	27.292	38.087002	16.985001
366	15	7	0.042176999	28.07	37.34	17.252001
367	15	7	0.042176999	27.747	39.099998	16.968
368	15	7	0.042176999	26.499001	38.067001	17.761
369	8	1	0.776353	23.851999	34.848999	11.793
370	8	2	-0.655608	22.990999	35.112	12.674
371	8	3	-0.47651899	23.790001	35.459	10.499
372	8	4	0.31685501	24.559999	35.263	9.8219995
373	8	5	0.020252001	22.737	36.397999	10.116
374	8	6	0.043086	23.041	36.942001	9.1969995
375	8	6	0.043086	22.608999	37.160999	10.914
376	8	5	-0.148384	21.400999	35.678001	9.875
377	8	7	0.078111999	21.052	35.237	10.833
378	8	7	0.078111999	20.632999	36.423	9.5780001
379	8	5	-0.144871	21.476999	34.551998	8.8249998
380	8	7	0.077193998	22.17	33.764	9.1899996
381	8	7	0.077193998	20.479	34.070999	8.7469997
382	8	5	-0.144454	21.941	34.995998	7.4229999
383	8	7	0.076471001	21.927	34.109001	6.7540002
384	8	7	0.076471001	22.997999	35.331001	7.474
385	8	5	-0.143208	21.096001	36.112	6.7839999
386	8	7	0.076471001	21.546	36.351002	5.7950001
387	8	7	0.076471001	21.159	37.032001	7.401
388	8	5	-0.143208	19.627001	35.702999	6.5780001
389	8	7	0.076471001	19.118999	35.592999	7.5599999
390	8	7	0.076471001	19.594999	34.716999	6.066
391	8	5	-0.144454	18.85	36.712002	5.7179999
392	8	7	0.076471001	19.385	36.862	4.756
393	8	7	0.076471001	17.856001	36.271	5.4879999
394	8	5	-0.144871	18.648001	38.061001	6.4310002
395	8	7	0.077193998	19.621	38.589001	6.5359998
396	8	7	0.077193998	18.250999	37.875	7.4530001
397	8	5	-0.148384	17.653999	38.973999	5.697
398	8	7	0.078111999	17.427	39.835999	6.3600001
399	8	7	0.078111999	16.700001	38.431	5.5190001
400	8	5	0.020252001	18.205999	39.499001	4.3639998
401	8	6	0.043086	19.194	39.986	4.5139999
402	8	6	0.043086	18.346001	38.648998	3.6619999
403	8	3	-0.47531	17.273001	40.451	3.7650001
404	8	4	0.31685501	16.726	40.159	2.924
405	8	1	0.77820301	17.136	41.798	4.2290001
406	8	2	-0.64752698	17.83	42.224998	5.1890001
407	16	8	-0.50544298	16.461	42.433998	3.7650001
408	16	5	0.109685	16.687	42.304001	2.3889999
409	16	6	0.073524997	16.5	41.250999	2.082
410	16	6	0.073524997	17.743	42.560001	2.148
411	16	5	-0.14248601	15.741	43.219002	1.61
412	16	7	0.081798002	15.86	42.993	0.52899998
413	16	7	0.081798002	14.692	42.993	1.902
414	16	5	-0.14339501	16.049999	44.702999	1.862
415	16	7	0.078156002	16.047001	44.893002	2.9579999
416	16	7	0.078156002	17.069	44.948002	1.495
417	16	5	-0.144541	15.013	45.647999	1.229
418	16	7	0.076471001	15.267	46.693001	1.512
419	16	7	0.076471001	14.014	45.429001	1.665
420	16	5	-0.143107	14.906	45.562	-0.30500001
421	16	7	0.076471001	14.109	46.269001	-0.625
422	16	7	0.076471001	14.579	44.546001	-0.61299998
423	16	5	-0.135994	16.214001	45.933998	-1.0190001
424	16	7	0.074606001	16.985001	45.162998	-0.80800003
425	16	7	0.074606001	16.573999	46.914001	-0.63700002
426	16	5	-0.13397899	16.004999	46.02	-2.5380001
427	16	7	0.076185003	15.247	46.799	-2.773
428	16	7	0.076185003	15.613	45.046001	-2.905
429	16	5	-0.090552002	17.312	46.321999	-3.286
430	16	7	0.074162997	17.134001	46.254002	-4.381
431	16	7	0.074162997	18.072001	45.553001	-3.026
432	16	1	-0.084321998	17.858	47.686001	-2.957
433	16	9	0.125818	18.778	47.749001	-2.3829999
434	16	1	-0.091179997	17.247999	48.806999	-3.3710001
435	16	9	0.12902801	16.323	48.740002	-3.937
436	16	5	-0.116702	17.785999	50.172001	-3.036
437	16	7	0.095668003	16.959999	50.903999	-3.1689999
438	16	7	0.095668003	18.096001	50.209	-1.9680001
439	16	5	0.16263901	18.957001	50.564999	-3.9579999
440	16	6	0.075112998	18.611	50.473999	-5.0120001
441	16	8	-0.50792199	20.049999	49.696999	-3.78
442	16	5	-0.14517701	19.377001	52.028999	-3.717
443	16	7	0.086576998	18.490999	52.688	-3.8559999
444	16	7	0.086576998	19.733999	52.148998	-2.6700001
445	16	5	-0.140672	20.48	52.471001	-4.6890001
446	16	7	0.077321	20.118999	52.348999	-5.7340002
447	16	7	0.077321	21.371	51.825001	-4.5430002
448	16	5	-0.144059	20.867001	53.938999	-4.4499998
449	16	7	0.076471001	21.280001	54.060001	-3.425
450	16	7	0.076471001	19.952	54.567001	-4.52
451	16	5	-0.14808001	21.878	54.460999	-5.4840002
452	16	7	0.077316999	21.509001	54.248001	-6.5120001
453	16	7	0.077316999	21.941999	55.564999	-5.3709998
454	16	5	-0.142094	23.278999	53.861	-5.296
455	16	7	0.066689	23.622999	54.027	-4.2509999
456	16	7	0.066689	23.257	52.769001	-5.4920001
457	16	5	-0.129512	24.282	54.500999	-6.2509999
458	16	7	0.042176999	23.971001	54.335999	-7.3039999
459	16	7	0.042176999	24.358999	55.591999	-6.0580001
460	16	7	0.042176999	25.283001	54.042999	-6.0999999
461	9	1	0.776353	20.375	49.799999	-2.8
462	9	2	-0.655608	21.573999	49.537998	-2.5150001
463	9	3	-0.47651899	19.459999	50.245998	-1.794
464	9	4	0.31685501	18.493999	50.514	-2.086
465	9	5	0.020252001	19.841999	50.41	-0.39199999
466	9	6	0.043086	19.075001	51.015999	0.134
467	9	6	0.043086	20.797001	50.974998	-0.33000001
468	9	5	-0.148384	20.003	49.051998	0.31
469	9	7	0.078111999	20.851	48.506001	-0.153
470	9	7	0.078111999	20.283001	49.221001	1.3710001
471	9	5	-0.144871	18.752001	48.154999	0.23199999
472	9	7	0.077193998	18.549	47.91	-0.833
473	9	7	0.077193998	18.975	47.188999	0.73299998
474	9	5	-0.144454	17.473	48.763	0.84200001
475	9	7	0.076471001	16.653999	48.016998	0.75199997
476	9	7	0.076471001	17.16	49.643002	0.241
477	9	5	-0.143208	17.594999	49.187	2.316
478	9	7	0.076471001	16.620001	49.625	2.6229999
479	9	7	0.076471001	18.357	49.987999	2.415
480	9	5	-0.143208	17.93	48.009998	3.2479999
481	9	7	0.076471001	18.959999	47.644001	3.05
482	9	7	0.076471001	17.226999	47.174	3.0420001
483	9	5	-0.144454	17.804001	48.382	4.7340002
484	9	7	0.076471001	16.791	48.796001	4.9239998
485	9	7	0.076471001	17.906	47.448002	5.3299999
486	9	5	-0.144871	18.881001	49.384998	5.184
487	9	7	0.077193998	18.705	50.374001	4.71
488	9	7	0.077193998	19.877001	49.021	4.849
489	9	5	-0.148384	18.93	49.555	6.71
490	9	7	0.078111999	19.839001	50.144001	6.96
491	9	7	0.078111999	19.031	48.562	7.1999998
492	9	5	0.020252001	17.695	50.279999	7.263
493	9	6	0.043086	17.540001	51.247002	6.7360001
494	9	6	0.043086	16.794001	49.652	7.0999999
495	9	3	-0.47531	17.844	50.52	8.6969995
496	9	4	0.31685501	17.271999	49.956001	9.3640003
497	9	1	0.77820301	18.68	51.555	9.2270002
498	9	2	-0.64752698	19.33	52.317001	8.4630003
499	17	8	-0.50544298	18.747	51.685001	10.253
500	17	5	0.109685	17.43	51.686001	10.732
501	17	6	0.073524997	16.950001	50.709999	10.495
502	17	6	0.073524997	16.844999	52.495998	10.241
503	17	5	-0.14248601	17.42	51.884998	12.248
504	17	7	0.081798002	16.375999	51.750999	12.604
505	17	7	0.081798002	18.055	51.105999	12.723
506	17	5	-0.14339501	17.922001	53.284	12.641
507	17	7	0.078156002	18.917999	53.455002	12.179
508	17	7	0.078156002	17.24	54.061001	12.235
509	17	5	-0.144541	18.083	53.458	14.162
510	17	7	0.076471001	18.511999	54.465	14.359
511	17	7	0.076471001	18.823	52.714001	14.531
512	17	5	-0.143107	16.785999	53.303001	14.976
513	17	7	0.076471001	17.049	53.424	16.049999
514	17	7	0.076471001	16.375999	52.278	14.857
515	17	5	-0.135994	15.719	54.344002	14.607
516	17	7	0.074606001	15.356	54.153999	13.575
517	17	7	0.074606001	16.169001	55.360001	14.647
518	17	5	-0.13397899	14.525	54.271999	15.571
519	17	7	0.076185003	14.864	54.474998	16.610001
520	17	7	0.076185003	14.104	53.243	15.549
521	17	5	-0.090552002	13.41	55.255001	15.186
522	17	7	0.074162997	12.525	55.081001	15.835
523	17	7	0.074162997	13.094	55.061001	14.137
524	17	1	-0.084321998	13.842	56.691002	15.313
525	17	9	0.125818	13.961	57.277	14.406
526	17	1	-0.091179997	14.061	57.256001	16.51
527	17	9	0.12902801	13.949	56.665001	17.415001
528	17	5	-0.116702	14.502	58.688999	16.641001
529	17	7	0.095668003	14.945	58.817001	17.653
530	17	7	0.095668003	15.299	58.912998	15.898
531	17	5	0.16263901	13.32	59.667	16.485001
532	17	6	0.075112998	12.536	59.377998	17.219
533	17	8	-0.50792199	12.764	59.581001	15.195
534	17	5	-0.14517701	13.759	61.112	16.796
535	17	7	0.086576998	14.202	61.145	17.816
536	17	7	0.086576998	14.541	61.43	16.070999
537	17	5	-0.140672	12.577	62.09	16.737
538	17	7	0.077321	11.798	61.768002	17.462999
539	17	7	0.077321	12.142	62.07	15.716
540	17	5	-0.144059	13.029	63.519001	17.073999
541	17	7	0.076471001	13.769	63.869999	16.322001
542	17	7	0.076471001	13.535	63.511002	18.065001
543	17	5	-0.14808001	11.856	64.508003	17.152
544	17	7	0.077316999	11.069	64.108002	17.827999
545	17	7	0.077316999	12.235	65.454002	17.598
546	17	5	-0.142094	11.252	64.82	15.774
547	17	7	0.066689	12.05	65.167	15.082
548	17	7	0.066689	10.786	63.907001	15.346
549	17	5	-0.129512	10.182	65.903	15.875
550	17	7	0.042176999	9.3629999	65.572998	16.548
551	17	7	0.042176999	10.622	66.845001	16.266001
552	17	7	0.042176999	9.757	66.100998	14.868
553	10	1	0.776353	13.497	59.866001	14.519
554	10	2	-0.655608	13.158	60.34	13.402
555	10	3	-0.47651899	14.878	59.724998	14.869
556	10	4	0.31685501	15.113	59.389	15.83
557	10	5	0.020252001	15.967	60.098999	13.968
558	10	6	0.043086	16.916	60.167	14.541
559	10	6	0.043086	15.772	61.109001	13.547
560	10	5	-0.148384	16.122	59.087002	12.822
561	10	7	0.078111999	15.208	59.116001	12.191
562	10	7	0.078111999	16.962	59.401001	12.168
563	10	5	-0.144871	16.336	57.634998	13.294
564	10	7	0.077193998	15.438	57.301998	13.857
565	10	7	0.077193998	16.400999	56.977001	12.401
566	10	5	-0.144454	17.576	57.412998	14.183
567	10	7	0.076471001	17.638	56.332001	14.432
568	10	7	0.076471001	17.438999	57.948002	15.147
569	10	5	-0.143208	18.910999	57.854	13.556
570	10	7	0.076471001	19.712999	57.661999	14.301
571	10	7	0.076471001	18.895	58.946999	13.37
572	10	5	-0.143208	19.24	57.092999	12.26
573	10	7	0.076471001	18.527	57.376999	11.457
574	10	7	0.076471001	19.127001	56.001999	12.443
575	10	5	-0.144454	20.676001	57.348	11.776
576	10	7	0.076471001	21.386999	57.112999	12.596
577	10	7	0.076471001	20.882999	56.648998	10.936
578	10	5	-0.144871	20.885	58.793999	11.29
579	10	7	0.077193998	20.83	59.498001	12.147
580	10	7	0.077193998	20.07	59.058998	10.581
581	10	5	-0.148384	22.225	58.985001	10.562
582	10	7	0.078111999	22.216999	59.990002	10.09
583	10	7	0.078111999	22.325001	58.235001	9.7469997
584	10	5	0.020252001	23.429001	58.883999	11.507
585	10	6	0.043086	23.313	59.580002	12.366
586	10	6	0.043086	23.497999	57.851002	11.91
587	10	3	-0.47531	24.666	59.187	10.791
588	10	4	0.31685501	25.326	58.408001	10.572
589	10	1	0.77820301	25.056	60.521999	10.45
590	10	2	-0.64752698	24.336	61.507	10.762
591	18	8	-0.50544298	25.947001	60.682999	9.9429998
592	18	5	0.109685	26.92	59.938999	10.624
593	18	6	0.073524997	26.648001	58.860001	10.596
594	18	6	0.073524997	26.974001	60.262001	11.688