Title

405 atoms
422 bonds
716 angles
1167 dihedrals
426 impropers

12 atom types
15 bond types
10 angle types
26 dihedral types
3 improper types
-9.637999535 90.36200047 xlo xhi
-5.642000198 94.3579998 ylo yhi
-2.755000114 97.24499989 zlo zhi
0.0 0.0 0.0 xy xz yz

Masses

1	12.01078
2	15.99943
3	14.00672
4	12.01078
5	1.007947
6	1.007947
7	1.007947
8	15.99943
9	1.007947
10	15.99943
11	1.007947
12	12.01078


Pair Coeffs

1	0.086879315	3.4806469
2	0.2102061	3.0398122
3	0.16769152	3.206876
4	0.10884061	3.3795318
5	0.014090815	1.1034277
6	0.015611343	2.5725815
7	0.015779483	2.6445434
8	0.16846514	3.0251065
9	0.016409246	2.5832257
10	0.20947353	2.99716
11	1.2326e-05	0.53453923
12	0.21	3.3996695

Bond Coeffs

1 harmonic	582.698766451	1.225198386222
2 harmonic	492.76746816345	1.381897776683
3 harmonic	301.15400723785	1.345741232799
4 harmonic	390.03554688505	1.390160554689
5 harmonic	505.144496193	1.019481865027
6 harmonic	360.7852444772	1.387193227181
7 harmonic	397.2545789619	1.085358495916
8 harmonic	289.73813263395	1.498646816465
9 harmonic	370.04670688625	1.093899492634
10 harmonic	366.7408841747	1.425895053732
11 harmonic	264.62148576755	1.52190126495
12 harmonic	329.96998057905	1.427343958716
13 harmonic	543.5267831885	0.9716763312559
14 harmonic	382.5450169811	1.379244394267
15 harmonic	602.81384337	1.196112346392


Angle Coeffs

1 harmonic	55.42182150775	117.3465570514
2 harmonic	63.44422595415	115.5071327674
3 harmonic	65.09061609600001	110.3538806181
4 harmonic	57.8982893754	126.8062420451
5 harmonic	201.41175231035	127.4691416191
6 harmonic	34.066775159195	129.1835929926
7 harmonic	53.20531626545	116.5475862634
8 harmonic	48.776492647595	115.6030999533
9 harmonic	55.07882548015	112.8714009681
10 harmonic	33.56981613361	180


Dihedral Coeffs

1 fourier 1	1.193093382682	2	180
2 fourier 1	0.1918272375143	3	0
3 fourier 1	0.9202179876409	1	180
4 fourier 1	0.0473758381877	3	0
5 fourier 1	1.809047390003	2	180
6 fourier 1	-0.04816277792592	1	0
7 fourier 1	0.4860993122944	2	180
8 fourier 1	0.8916986138746	1	0
9 fourier 1	1.163809172478	2	180
10 fourier 1	0.1679186987369	1	180
11 fourier 1	2.779853741805	2	180
12 fourier 1	3.661930099076	2	180
13 fourier 1	0.02664938770063	3	0
14 fourier 1	0.1155372516788	3	0
15 fourier 1	0.1115525666802	3	0
16 fourier 1	0.3432490222662	1	0
17 fourier 1	0.09223874044423	3	0
18 fourier 1	0.3159935921949	2	180
19 fourier 1	0.3247796806857	1	180
20 fourier 1	0.1040663847541	3	0
21 fourier 1	0.1911926717192	3	0
22 fourier 1	0.3445382149273	3	0
23 fourier 1	0.1364556373303	1	0
24 fourier 1	0.3026390167484	3	0
25 fourier 1	1.550515418264	2	180
26 fourier 1	0	1	0


Improper Coeffs

1 0.3333333333333333	-1	2
2 3.5	-1	2
3 0.3666666666666667	-1	2


Atoms

1	4	1	0.82011902	-5.7150002	-0.498	1.609
2	4	2	-0.55282003	-5.9759998	-1.04	0.50300002
3	4	3	-0.47038901	-4.5219998	0.27399999	1.798
4	4	1	0.22902	-3.4389999	0.33899999	0.85399997
5	4	1	-0.36768699	-2.694	1.523	0.74400002
6	4	1	-0.142562	-1.622	1.607	-0.149
7	4	1	-0.24559399	-1.273	0.50300002	-0.94099998
8	4	4	-0.050790999	-0.093999997	0.57999998	-1.873
9	4	1	-0.24559399	1.164	0.171	-1.155
10	4	1	-0.142562	1.924	1.123	-0.45899999
11	4	1	-0.36768699	3.072	0.73799998	0.23899999
12	4	1	0.22902	3.4820001	-0.60699999	0.24699999
13	4	3	-0.47038901	4.645	-1.035	0.977
14	4	1	0.82011902	5.836	-0.25299999	1.133
15	4	2	-0.55282003	6.013	0.80800003	0.477
16	4	1	-0.36768699	2.701	-1.562	-0.41999999
17	4	1	-0.142562	1.553	-1.177	-1.119
18	4	1	-0.142562	-1.993	-0.69400001	-0.80699998
19	4	1	-0.36768699	-3.066	-0.77700001	0.085000001
20	4	5	0.32513201	-4.487	0.89499998	2.638
21	4	6	0.21634699	-2.951	2.385	1.347
22	4	6	0.214586	-1.062	2.5309999	-0.219
23	4	7	0.125816	-0.25999999	-0.077	-2.7550001
24	4	7	0.125816	0.012	1.613	-2.2709999
25	4	6	0.214586	1.62	2.1630001	-0.447
26	4	6	0.21634699	3.619	1.488	0.79500002
27	4	5	0.32513201	4.6680002	-2.0109999	1.347
28	4	6	0.21634699	2.987	-2.6059999	-0.40400001
29	4	6	0.214586	0.96499997	-1.9299999	-1.628
30	4	6	0.214586	-1.716	-1.567	-1.386
31	4	6	0.21634699	-3.5810001	-1.722	0.192
32	12	8	-0.48721701	6.585	-0.58499998	1.7690001
33	12	4	0.124773	6.0139999	-0.67500001	3.046
34	12	4	-0.131605	5.8730001	0.71799999	3.6630001
35	12	4	-0.131605	5.2800002	0.639	5.0760002
36	12	4	0.124773	5.1539998	2.023	5.7160001
37	12	8	-0.48721701	4.2259998	2.799	5.0100002
38	12	9	0.106263	5.0209999	-1.177	2.99
39	12	9	0.106263	6.678	-1.298	3.684
40	12	7	0.109259	5.2140002	1.336	3.0150001
41	12	7	0.109259	6.8759999	1.198	3.707
42	12	7	0.109259	4.2750001	0.163	5.0380001
43	12	7	0.109259	5.9369998	0.012	5.717
44	12	9	0.106263	4.8109999	1.901	6.7680001
45	12	9	0.106263	6.1469998	2.527	5.7249999
46	5	1	0.82011998	4.1960001	3.7179999	5.4899998
47	5	2	-0.55282003	3.115	4.1059999	6.007
48	5	3	-0.47038901	5.3940001	4.4970002	5.5970001
49	5	1	0.22902	5.4460001	5.8429999	6.0999999
50	5	1	-0.36768699	6.5900002	6.276	6.7870002
51	5	1	-0.142562	6.6760001	7.586	7.2680001
52	5	1	-0.24559399	5.6199999	8.4870005	7.0619998
53	5	4	-0.050790999	5.7290001	9.908	7.5440001
54	5	1	-0.24559399	6.3649998	10.769	6.4860001
55	5	1	-0.142562	7.7600002	10.906	6.4289999
56	5	1	-0.36768699	8.3540001	11.676	5.4239998
57	5	1	0.22902	7.559	12.325	4.4629998
58	5	3	-0.47038901	8.1440001	13.103	3.404
59	5	1	0.82011902	9.3319998	13.893	3.5409999
60	5	2	-0.55282003	9.8509998	14.105	4.6700001
61	5	1	-0.36768699	6.1669998	12.157	4.5019999
62	5	1	-0.142562	5.573	11.388	5.507
63	5	1	-0.142562	4.4889998	8.0670004	6.3439999
64	5	1	-0.36768699	4.4029999	6.757	5.8649998
65	5	5	0.32513201	6.2940001	4.0159998	5.3740001
66	5	6	0.21634699	7.4130001	5.5939999	6.9559999
67	5	6	0.214586	7.5679998	7.8990002	7.7969999
68	5	7	0.125816	4.7220001	10.302	7.803
69	5	7	0.125816	6.3280001	9.9490004	8.4809999
70	5	6	0.214586	8.3889999	10.408	7.1560001
71	5	6	0.21634699	9.4329996	11.736	5.3850002
72	5	5	0.32513201	7.631	13.173	2.497
73	5	6	0.21634699	5.5409999	12.629	3.756
74	5	6	0.214586	4.4959998	11.272	5.5190001
75	5	6	0.214586	3.6789999	8.7589998	6.1469998
76	5	6	0.21634699	3.5350001	6.4720001	5.2849998
77	13	8	-0.48721701	9.7530003	14.332	2.701
78	13	4	0.124773	10.085	13.287	1.827
79	13	4	-0.131605	11.357	12.581	2.3039999
80	13	4	-0.131605	11.756	11.454	1.3430001
81	13	4	0.124773	13.039	10.753	1.793
82	13	8	-0.48721701	12.826	10.092	3.01
83	13	9	0.106263	9.2419996	12.562	1.756
84	13	9	0.106263	10.255	13.716	0.81599998
85	13	7	0.109259	11.179	12.162	3.319
86	13	7	0.109259	12.181	13.325	2.369
87	13	7	0.109259	10.936	10.706	1.277
88	13	7	0.109259	11.921	11.877	0.32800001
89	13	9	0.106263	13.335	10.014	1.016
90	13	9	0.106263	13.859	11.499	1.901
91	6	1	0.82011998	13.73	9.6479998	3.2579999
92	6	2	-0.55282003	13.792	8.3950005	3.358
93	6	3	-0.47038901	14.894	10.468	3.428
94	6	1	0.22902	16.16	9.9899998	3.9170001
95	6	1	-0.36768699	17.343	10.579	3.4489999
96	6	1	-0.142562	18.586	10.15	3.924
97	6	1	-0.24559399	18.663	9.1269999	4.8800001
98	6	4	-0.050790999	19.999001	8.6920004	5.421
99	6	1	-0.24559399	20.372	9.5249996	6.618
100	6	1	-0.142562	21.070999	10.73	6.4510002
101	6	1	-0.36768699	21.386	11.523	7.559
102	6	1	0.22902	21.01	11.119	8.8529997
103	6	3	-0.47038901	21.299	11.927	10.007
104	6	1	0.82011902	22.482	12.721	10.164
105	6	2	-0.55282003	23.448	12.62	9.3620005
106	6	1	-0.36768699	20.280001	9.9320002	9.0109997
107	6	1	-0.142562	19.966	9.1379995	7.9039998
108	6	1	-0.142562	17.48	8.559	5.3759999
109	6	1	-0.36768699	16.237	8.9879999	4.901
110	6	5	0.32513201	14.833	11.454	3.089
111	6	6	0.21634699	17.302	11.369	2.71
112	6	6	0.214586	19.487	10.618	3.5480001
113	6	7	0.125816	19.966	7.6160002	5.6999998
114	6	7	0.125816	20.778	8.7849998	4.6329999
115	6	6	0.214586	21.363001	11.062	5.4629998
116	6	6	0.21634699	21.895	12.463	7.3979998
117	6	5	0.32513201	20.653999	11.87	10.827
118	6	6	0.21634699	19.959999	9.6169996	9.9960003
119	6	6	0.214586	19.402	8.2250004	8.0489998
120	6	6	0.214586	17.518999	7.7919998	6.1399999
121	6	6	0.21634699	15.341	8.5570002	5.3260002
122	14	8	-0.48721701	22.561001	13.364	10.974
123	14	4	0.124773	21.497999	14.272	10.87
124	14	4	-0.131605	21.799999	15.318	9.7939997
125	14	4	-0.131605	20.663	16.343	9.6859999
126	14	4	0.124773	20.959	17.41	8.6300001
127	14	8	-0.48721701	21.004	16.829	7.3559999
128	14	9	0.106263	20.552	13.734	10.633
129	14	9	0.106263	21.370001	14.776	11.852
130	14	7	0.109259	21.934	14.805	8.8170004
131	14	7	0.109259	22.747999	15.84	10.051
132	14	7	0.109259	19.712999	15.827	9.4250002
133	14	7	0.109259	20.525999	16.846001	10.668
134	14	9	0.106263	20.153	18.176001	8.6599998
135	14	9	0.106263	21.929001	17.907	8.8579998
136	7	1	0.82011998	21.214001	17.6	6.6960001
137	7	2	-0.55282003	20.377001	17.886999	5.7989998
138	7	3	-0.47038901	22.424	18.353001	6.8520002
139	7	1	0.22902	22.895	19.337999	5.9159999
140	7	1	-0.36768699	23.618999	20.441999	6.388
141	7	1	-0.142562	24.108	21.403	5.4990001
142	7	1	-0.24559399	23.886	21.27	4.1199999
143	7	4	-0.050790999	24.447001	22.283001	3.1589999
144	7	1	-0.24559399	25.837	21.888	2.7390001
145	7	1	-0.142562	26.948	22.302	3.4909999
146	7	1	-0.36768699	28.237	21.905001	3.1229999
147	7	1	0.22902	28.436001	21.091	1.993
148	7	3	-0.47038901	29.747999	20.648001	1.607
149	7	1	0.82011902	30.941999	21.429001	1.753
150	7	2	-0.55282003	30.892	22.646	2.0699999
151	7	1	-0.36768699	27.32	20.65	1.266
152	7	1	-0.142562	26.031	21.047001	1.633
153	7	1	-0.142562	23.193001	20.148001	3.641
154	7	1	-0.36768699	22.702999	19.187	4.5310001
155	7	5	0.32513201	22.944	18.233	7.7509999
156	7	6	0.21634699	23.799	20.562	7.4489999
157	7	6	0.214586	24.664	22.249001	5.8850002
158	7	7	0.125816	23.788	22.368	2.266
159	7	7	0.125816	24.462	23.290001	3.6300001
160	7	6	0.214586	26.813999	22.923	4.368
161	7	6	0.21634699	29.070999	22.211	3.74
162	7	5	0.32513201	29.837	19.736	1.1059999
163	7	6	0.21634699	27.452	20.003	0.40799999
164	7	6	0.214586	25.184	20.695999	1.056
165	7	6	0.214586	23.041	20.011	2.5780001
166	7	6	0.21634699	22.202	18.316	4.132
167	15	8	-0.48721701	31.863001	20.993	1.557
168	15	4	0.124773	31.995001	19.917999	2.4460001
169	15	4	-0.131605	32.344002	20.427999	3.846
170	15	4	-0.131605	32.525002	19.263	4.829
171	15	4	0.124773	32.896999	19.754999	6.2280002
172	15	8	-0.48721701	31.839001	20.490999	6.7779999
173	15	9	0.106263	31.054001	19.322001	2.473
174	15	9	0.106263	32.808998	19.257	2.0780001
175	15	7	0.109259	31.527	21.094	4.2030001
176	15	7	0.109259	33.284	21.02	3.793
177	15	7	0.109259	31.586	18.67	4.888
178	15	7	0.109259	33.334999	18.594999	4.4619999
179	15	9	0.106263	33.110001	18.872999	6.8730001
180	15	9	0.106263	33.813999	20.384001	6.1760001
181	8	1	0.82011998	32.159	20.797001	7.7160001
182	8	2	-0.55282003	31.532	20.408001	8.7370005
183	8	3	-0.47038901	33.334	21.610001	7.8299999
184	8	1	0.22902	33.785999	22.218	9.052
185	8	1	-0.36768699	35.161999	22.391001	9.2650003
186	8	1	-0.142562	35.627998	23	10.434
187	8	1	-0.24559399	34.723999	23.451	11.407
188	8	4	-0.050790999	35.223	24.143	12.646
189	8	1	-0.24559399	35.346001	25.622999	12.403
190	8	1	-0.142562	36.534	26.159	11.883
191	8	1	-0.36768699	36.636002	27.528999	11.623
192	8	1	0.22902	35.550999	28.385	11.883
193	8	3	-0.47038901	35.620998	29.794001	11.601
194	8	1	0.82011902	36.803001	30.591	11.744
195	8	2	-0.55282003	37.834	30.136999	12.308
196	8	1	-0.36768699	34.354	27.84	12.369
197	8	1	-0.142562	34.251999	26.471001	12.631
198	8	1	-0.142562	33.346001	23.312	11.18
199	8	1	-0.36768699	32.879002	22.702999	10.012
200	8	5	0.32513201	33.941002	21.686001	6.9829998
201	8	6	0.21634699	35.874001	22.047001	8.526
202	8	6	0.214586	36.695	23.122	10.578
203	8	7	0.125816	34.532001	23.951	13.496
204	8	7	0.125816	36.208	23.722	12.947
205	8	6	0.214586	37.377998	25.514999	11.669
206	8	6	0.21634699	37.551998	27.909	11.19
207	8	5	0.32513201	34.737	30.296	11.361
208	8	6	0.21634699	33.5	28.48	12.552
209	8	6	0.214586	33.318001	26.070999	13.007
210	8	6	0.214586	32.632	23.684999	11.904
211	8	6	0.21634699	31.812	22.639	9.8479996
212	16	8	-0.48721701	36.799	31.573	11.411
213	16	4	0.124773	36.528	31.530001	10.037
214	16	4	-0.131605	37.776001	31.094	9.2650003
215	16	4	-0.131605	37.511002	31.070999	7.7529998
216	16	4	0.124773	38.755001	30.66	6.9660001
217	16	8	-0.48721701	39.098999	29.334999	7.2620001
218	16	9	0.106263	35.682999	30.833	9.8319998
219	16	9	0.106263	36.223	32.546001	9.7069998
220	16	7	0.109259	38.077999	30.08	9.6070004
221	16	7	0.109259	38.605	31.802	9.4860001
222	16	7	0.109259	36.683998	30.362	7.526
223	16	7	0.109259	37.199001	32.084	7.4190001
224	16	9	0.106263	38.536999	30.752001	5.8779998
225	16	9	0.106263	39.601002	31.34	7.2150002
226	9	1	0.82011998	39.948002	29.125999	6.704
227	9	2	-0.55282003	39.903999	28.212999	5.8369999
228	9	3	-0.47038901	41.129002	29.914	6.895
229	9	1	0.22902	42.403999	29.627001	6.296
230	9	1	-0.36768699	43.258999	30.686001	5.9590001
231	9	1	-0.142562	44.513	30.434999	5.395
232	9	1	-0.24559399	44.935001	29.115999	5.165
233	9	4	-0.050790999	46.300999	28.844	4.5960002
234	9	1	-0.24559399	47.313	28.731001	5.704
235	9	1	-0.142562	47.973999	29.874001	6.1789999
236	9	1	-0.36768699	48.887001	29.775999	7.2319999
237	9	1	0.22902	49.158001	28.530001	7.8249998
238	9	3	-0.47038901	50.074001	28.403999	8.9259996
239	9	1	0.82011902	51.263	29.188999	9.085
240	9	2	-0.55282003	51.685001	29.931999	8.1590004
241	9	1	-0.36768699	48.470001	27.395	7.3709998
242	9	1	-0.142562	47.556999	27.493	6.3169999
243	9	1	-0.142562	44.097	28.052999	5.5349998
244	9	1	-0.36768699	42.841999	28.305	6.0970001
245	9	5	0.32513201	41.023998	30.802	7.4369998
246	9	6	0.21634699	42.949001	31.709999	6.1269999
247	9	6	0.214586	45.157001	31.268	5.1409998
248	9	7	0.125816	46.285	27.907	3.9960001
249	9	7	0.125816	46.591	29.656	3.895
250	9	6	0.214586	47.772999	30.844	5.7399998
251	9	6	0.21634699	49.355999	30.679001	7.5999999
252	9	5	0.32513201	49.919998	27.634001	9.6149998
253	9	6	0.21634699	48.646999	26.431	7.8319998
254	9	6	0.214586	47.037998	26.604	5.9819999
255	9	6	0.214586	44.418999	27.028	5.3959999
256	9	6	0.21634699	42.230999	27.466	6.4029999
257	17	8	-0.48721701	51.808998	29.117001	9.9639997
258	17	4	0.124773	50.950001	29.504999	11.002
259	17	4	-0.131605	50.798	31.028	11.021
260	17	4	-0.131605	49.886002	31.476999	12.171
261	17	4	0.124773	49.742001	32.999001	12.219
262	17	8	-0.48721701	49.080002	33.458	11.073
263	17	9	0.106263	49.955002	29.018	10.881
264	17	9	0.106263	51.386002	29.163	11.965
265	17	7	0.109259	50.368	31.362	10.052
266	17	7	0.109259	51.801998	31.490999	11.14
267	17	7	0.109259	48.879002	31.018999	12.055
268	17	7	0.109259	50.314999	31.132	13.137
269	17	9	0.106263	49.153999	33.275002	13.122
270	17	9	0.106263	50.748001	33.471001	12.295
271	10	1	0.82011998	49.022999	34.488998	11.167
272	10	2	-0.55282003	47.891998	35.040001	11.222
273	10	3	-0.47038901	50.23	35.254002	11.284
274	10	1	0.22902	50.285999	36.691002	11.267
275	10	1	-0.36768699	51.272999	37.348	12.017
276	10	1	-0.142562	51.365002	38.743	12.001
277	10	1	-0.24559399	50.473	39.502998	11.228
278	10	4	-0.050790999	50.597	41.000999	11.179
279	10	1	-0.24559399	51.539001	41.41	10.079
280	10	1	-0.142562	52.915001	41.518002	10.328
281	10	1	-0.36768699	53.794998	41.862	9.2980003
282	10	1	0.22902	53.310001	42.108002	8.0010004
283	10	3	-0.47038901	54.195	42.438999	6.9169998
284	10	1	0.82011902	55.386002	43.224998	7.0549998
285	10	2	-0.55282003	55.644001	43.84	8.1239996
286	10	1	-0.36768699	51.938	41.965	7.7480001
287	10	1	-0.142562	51.057999	41.622002	8.7779999
288	10	1	-0.142562	49.507999	38.846001	10.45
289	10	1	-0.36768699	49.416	37.451	10.466
290	10	5	0.32513201	51.109001	34.723999	11.482
291	10	6	0.21634699	51.967999	36.778	12.62
292	10	6	0.214586	52.132999	39.23	12.588
293	10	7	0.125816	49.598	41.462002	11.018
294	10	7	0.125816	50.962002	41.386002	12.157
295	10	6	0.214586	53.308998	41.324001	11.319
296	10	6	0.21634699	54.855	41.903999	9.5109997
297	10	5	0.32513201	53.916	42.167999	5.947
298	10	6	0.21634699	51.549	42.125999	6.75
299	10	6	0.214586	50.001999	41.518002	8.5609999
300	10	6	0.214586	48.833	39.414001	9.8210001
301	10	6	0.21634699	48.685001	36.971001	9.8299999
302	18	8	-0.48721701	56.029999	43.321999	6.2480001
303	18	4	0.124773	56.459	42.028999	5.9200001
304	18	4	-0.131605	57.514	41.550999	6.921
305	18	4	-0.131605	58.021	40.147999	6.5609999
306	18	4	0.124773	59.092999	39.665001	7.539
307	18	8	-0.48721701	58.542999	39.500999	8.8170004
308	18	9	0.106263	55.592999	41.327	5.9050002
309	18	9	0.106263	56.898998	42.053001	4.9000001
310	18	7	0.109259	57.067001	41.536999	7.9390001
311	18	7	0.109259	58.365002	42.265999	6.9190001
312	18	7	0.109259	57.173	39.428001	6.5650001
313	18	7	0.109259	58.457001	40.165001	5.5380001
314	18	9	0.106263	59.493	38.691002	7.1799998
315	18	9	0.106263	59.93	40.398998	7.5739999
316	11	1	0.82011998	59.319	39.181999	9.4250002
317	11	2	-0.55282003	59.241001	38.054001	9.9809999
318	11	3	-0.47038901	60.481998	40.007	9.5769997
319	11	1	0.22902	61.549	39.744999	10.505
320	11	1	-0.36768699	62.858002	40.120998	10.17
321	11	1	-0.142562	63.91	39.898998	11.062
322	11	1	-0.24559399	63.667999	39.301998	12.309
323	11	4	-0.050790999	64.793999	39.099998	13.286
324	11	1	-0.24559399	64.953003	40.317001	14.157
325	11	1	-0.142562	65.778999	41.375999	13.751
326	11	1	-0.36768699	65.898003	42.522999	14.541
327	11	1	0.22902	65.195	42.625999	15.755
328	11	3	-0.47038901	65.279999	43.804001	16.575001
329	11	1	0.82011902	66.460999	44.601002	16.729
330	11	2	-0.55282003	67.574997	44.212002	16.285999
331	11	1	-0.36768699	64.343002	41.581001	16.139999
332	11	1	-0.142562	64.223999	40.433998	15.35
333	11	1	-0.142562	62.354	38.958	12.662
334	11	1	-0.36768699	61.301998	39.179001	11.769
335	11	5	0.32513201	60.591999	40.797001	8.9029999
336	11	6	0.21634699	63.063	40.581001	9.2110004
337	11	6	0.214586	64.914001	40.195999	10.783
338	11	7	0.125816	64.598999	38.203999	13.914
339	11	7	0.125816	65.741997	38.895	12.74
340	11	6	0.214586	66.322998	41.318001	12.816
341	11	6	0.21634699	66.515999	43.337002	14.187
342	11	5	0.32513201	64.459	44.055	17.171
343	11	6	0.21634699	63.773998	41.653	17.059
344	11	6	0.214586	63.561001	39.638	15.667
345	11	6	0.214586	62.143002	38.528	13.633
346	11	6	0.21634699	60.294998	38.935001	12.08
347	19	8	-0.48721701	66.407997	45.498001	17.246
348	19	4	0.124773	65.487	46.303001	16.561001
349	19	4	-0.131605	66.126999	46.875999	15.293
350	19	4	-0.131605	65.144997	47.786999	14.544
351	19	4	0.124773	65.777	48.388	13.287
352	19	8	-0.48721701	66.064003	47.375999	12.361
353	19	9	0.106263	64.577003	45.714001	16.302999
354	19	9	0.106263	65.181	47.133999	17.231001
355	19	7	0.109259	66.436996	46.037998	14.633
356	19	7	0.109259	67.031998	47.457001	15.576
357	19	7	0.109259	64.238998	47.209999	14.257
358	19	7	0.109259	64.830002	48.618	15.212
359	19	9	0.106263	65.059998	49.110001	12.836
360	19	9	0.106263	66.708	48.935001	13.556
361	3	8	-0.48721701	-6.3670001	-0.579	2.3540001
362	3	4	0.124843	-6.5739999	-1.95	2.559
363	3	4	-0.126066	-7.4889998	-2.516	1.47
364	3	4	-0.16009	-7.7550001	-4.0110002	1.694
365	3	4	0.096266001	-8.6870003	-4.5869999	0.62800002
366	3	10	-0.66816199	-8.0679998	-4.5450001	-0.62800002
367	3	9	0.106263	-5.599	-2.49	2.5650001
368	3	9	0.106263	-7.0500002	-2.0880001	3.553
369	3	7	0.109431	-7.0079999	-2.3659999	0.479
370	3	7	0.109431	-8.4519997	-1.96	1.482
371	3	7	0.113077	-6.7940001	-4.5710001	1.6799999
372	3	7	0.113077	-8.2259998	-4.1550002	2.691
373	3	9	0.100448	-8.9219999	-5.6420002	0.88999999
374	3	9	0.100448	-9.6379995	-4.0079999	0.60500002
375	3	11	0.40293899	-8.7229996	-4.9239998	-1.27
376	2	1	0.82011998	66.511002	47.868999	11.508
377	2	2	-0.55282003	67.165001	48.931	11.684
378	2	3	-0.47038901	66.304001	47.332001	10.195
379	2	1	0.22902	66.966003	47.806	9.0089998
380	2	1	-0.36768699	68.295998	48.262001	9.0419998
381	2	1	-0.142562	68.924004	48.694	7.8699999
382	2	1	-0.24559399	68.236	48.674	6.6479998
383	2	4	-0.050790999	68.925003	49.103001	5.381
384	2	1	-0.26008901	69.621002	47.93	4.7449999
385	2	1	-0.187574	68.938004	47.108002	3.8369999
386	2	1	-0.25986201	69.572998	45.997002	3.2739999
387	2	1	0.44103801	70.894997	45.685001	3.615
388	2	3	-0.34890601	71.507004	44.534	3.0120001
389	2	12	0.61494797	72.699997	44.158001	3.25
390	2	2	-0.30700001	73.859001	43.792	3.4809999
391	2	1	-0.25986201	71.578003	46.502998	4.5359998
392	2	1	-0.187574	70.942001	47.613998	5.099
393	2	1	-0.142562	66.919998	48.187	6.6079998
394	2	1	-0.36768699	66.292999	47.754002	7.7800002
395	2	5	0.32513201	65.556999	46.609001	10.091
396	2	6	0.21634699	68.862	48.256001	9.9639997
397	2	6	0.214586	69.950996	49.035	7.914
398	2	7	0.125816	69.657997	49.91	5.599
399	2	7	0.125816	68.185997	49.537998	4.6729999
400	2	6	0.200672	67.912003	47.326	3.5650001
401	2	6	0.208408	69.032997	45.375	2.5710001
402	2	6	0.208408	72.598	46.285	4.8249998
403	2	6	0.200672	71.478996	48.227001	5.8130002
404	2	6	0.214586	66.382004	48.139	5.6700001
405	2	6	0.21634699	65.277	47.382	7.7309999

Bonds

1	1	1	2
2	2	1	3
3	3	1	361
4	4	3	4
5	5	3	20
6	6	4	5
7	6	4	19
8	6	5	6
9	7	5	21
10	6	6	7
11	7	6	22
12	8	7	8
13	6	7	18
14	8	8	9
15	9	8	23
16	9	8	24
17	6	9	10
18	6	9	17
19	6	10	11
20	7	10	25
21	6	11	12
22	7	11	26
23	4	12	13
24	6	12	16
25	2	13	14
26	5	13	27
27	1	14	15
28	3	14	32
29	6	16	17
30	7	16	28
31	7	17	29
32	6	18	19
33	7	18	30
34	7	19	31
35	10	32	33
36	11	33	34
37	9	33	38
38	9	33	39
39	11	34	35
40	9	34	40
41	9	34	41
42	11	35	36
43	9	35	42
44	9	35	43
45	10	36	37
46	9	36	44
47	9	36	45
48	3	37	46
49	1	46	47
50	2	46	48
51	4	48	49
52	5	48	65
53	6	49	50
54	6	49	64
55	6	50	51
56	7	50	66
57	6	51	52
58	7	51	67
59	8	52	53
60	6	52	63
61	8	53	54
62	9	53	68
63	9	53	69
64	6	54	55
65	6	54	62
66	6	55	56
67	7	55	70
68	6	56	57
69	7	56	71
70	4	57	58
71	6	57	61
72	2	58	59
73	5	58	72
74	1	59	60
75	3	59	77
76	6	61	62
77	7	61	73
78	7	62	74
79	6	63	64
80	7	63	75
81	7	64	76
82	10	77	78
83	11	78	79
84	9	78	83
85	9	78	84
86	11	79	80
87	9	79	85
88	9	79	86
89	11	80	81
90	9	80	87
91	9	80	88
92	10	81	82
93	9	81	89
94	9	81	90
95	3	82	91
96	1	91	92
97	2	91	93
98	4	93	94
99	5	93	110
100	6	94	95
101	6	94	109
102	6	95	96
103	7	95	111
104	6	96	97
105	7	96	112
106	8	97	98
107	6	97	108
108	8	98	99
109	9	98	113
110	9	98	114
111	6	99	100
112	6	99	107
113	6	100	101
114	7	100	115
115	6	101	102
116	7	101	116
117	4	102	103
118	6	102	106
119	2	103	104
120	5	103	117
121	1	104	105
122	3	104	122
123	6	106	107
124	7	106	118
125	7	107	119
126	6	108	109
127	7	108	120
128	7	109	121
129	10	122	123
130	11	123	124
131	9	123	128
132	9	123	129
133	11	124	125
134	9	124	130
135	9	124	131
136	11	125	126
137	9	125	132
138	9	125	133
139	10	126	127
140	9	126	134
141	9	126	135
142	3	127	136
143	1	136	137
144	2	136	138
145	4	138	139
146	5	138	155
147	6	139	140
148	6	139	154
149	6	140	141
150	7	140	156
151	6	141	142
152	7	141	157
153	8	142	143
154	6	142	153
155	8	143	144
156	9	143	158
157	9	143	159
158	6	144	145
159	6	144	152
160	6	145	146
161	7	145	160
162	6	146	147
163	7	146	161
164	4	147	148
165	6	147	151
166	2	148	149
167	5	148	162
168	1	149	150
169	3	149	167
170	6	151	152
171	7	151	163
172	7	152	164
173	6	153	154
174	7	153	165
175	7	154	166
176	10	167	168
177	11	168	169
178	9	168	173
179	9	168	174
180	11	169	170
181	9	169	175
182	9	169	176
183	11	170	171
184	9	170	177
185	9	170	178
186	10	171	172
187	9	171	179
188	9	171	180
189	3	172	181
190	1	181	182
191	2	181	183
192	4	183	184
193	5	183	200
194	6	184	185
195	6	184	199
196	6	185	186
197	7	185	201
198	6	186	187
199	7	186	202
200	8	187	188
201	6	187	198
202	8	188	189
203	9	188	203
204	9	188	204
205	6	189	190
206	6	189	197
207	6	190	191
208	7	190	205
209	6	191	192
210	7	191	206
211	4	192	193
212	6	192	196
213	2	193	194
214	5	193	207
215	1	194	195
216	3	194	212
217	6	196	197
218	7	196	208
219	7	197	209
220	6	198	199
221	7	198	210
222	7	199	211
223	10	212	213
224	11	213	214
225	9	213	218
226	9	213	219
227	11	214	215
228	9	214	220
229	9	214	221
230	11	215	216
231	9	215	222
232	9	215	223
233	10	216	217
234	9	216	224
235	9	216	225
236	3	217	226
237	1	226	227
238	2	226	228
239	4	228	229
240	5	228	245
241	6	229	230
242	6	229	244
243	6	230	231
244	7	230	246
245	6	231	232
246	7	231	247
247	8	232	233
248	6	232	243
249	8	233	234
250	9	233	248
251	9	233	249
252	6	234	235
253	6	234	242
254	6	235	236
255	7	235	250
256	6	236	237
257	7	236	251
258	4	237	238
259	6	237	241
260	2	238	239
261	5	238	252
262	1	239	240
263	3	239	257
264	6	241	242
265	7	241	253
266	7	242	254
267	6	243	244
268	7	243	255
269	7	244	256
270	10	257	258
271	11	258	259
272	9	258	263
273	9	258	264
274	11	259	260
275	9	259	265
276	9	259	266
277	11	260	261
278	9	260	267
279	9	260	268
280	10	261	262
281	9	261	269
282	9	261	270
283	3	262	271
284	1	271	272
285	2	271	273
286	4	273	274
287	5	273	290
288	6	274	275
289	6	274	289
290	6	275	276
291	7	275	291
292	6	276	277
293	7	276	292
294	8	277	278
295	6	277	288
296	8	278	279
297	9	278	293
298	9	278	294
299	6	279	280
300	6	279	287
301	6	280	281
302	7	280	295
303	6	281	282
304	7	281	296
305	4	282	283
306	6	282	286
307	2	283	284
308	5	283	297
309	1	284	285
310	3	284	302
311	6	286	287
312	7	286	298
313	7	287	299
314	6	288	289
315	7	288	300
316	7	289	301
317	10	302	303
318	11	303	304
319	9	303	308
320	9	303	309
321	11	304	305
322	9	304	310
323	9	304	311
324	11	305	306
325	9	305	312
326	9	305	313
327	10	306	307
328	9	306	314
329	9	306	315
330	3	307	316
331	1	316	317
332	2	316	318
333	4	318	319
334	5	318	335
335	6	319	320
336	6	319	334
337	6	320	321
338	7	320	336
339	6	321	322
340	7	321	337
341	8	322	323
342	6	322	333
343	8	323	324
344	9	323	338
345	9	323	339
346	6	324	325
347	6	324	332
348	6	325	326
349	7	325	340
350	6	326	327
351	7	326	341
352	4	327	328
353	6	327	331
354	2	328	329
355	5	328	342
356	1	329	330
357	3	329	347
358	6	331	332
359	7	331	343
360	7	332	344
361	6	333	334
362	7	333	345
363	7	334	346
364	10	347	348
365	11	348	349
366	9	348	353
367	9	348	354
368	11	349	350
369	9	349	355
370	9	349	356
371	11	350	351
372	9	350	357
373	9	350	358
374	10	351	352
375	9	351	359
376	9	351	360
377	3	352	376
378	10	361	362
379	11	362	363
380	9	362	367
381	9	362	368
382	11	363	364
383	9	363	369
384	9	363	370
385	11	364	365
386	9	364	371
387	9	364	372
388	12	365	366
389	9	365	373
390	9	365	374
391	13	366	375
392	1	376	377
393	2	376	378
394	4	378	379
395	5	378	395
396	6	379	380
397	6	379	394
398	6	380	381
399	7	380	396
400	6	381	382
401	7	381	397
402	8	382	383
403	6	382	393
404	8	383	384
405	9	383	398
406	9	383	399
407	6	384	385
408	6	384	392
409	6	385	386
410	7	385	400
411	6	386	387
412	7	386	401
413	14	387	388
414	6	387	391
415	15	388	389
416	1	389	390
417	6	391	392
418	7	391	402
419	7	392	403
420	6	393	394
421	7	393	404
422	7	394	405

Angles

1	4	50	49	64
2	3	1	361	362
3	4	188	189	197
4	5	150	149	167
5	7	212	213	219
6	4	280	281	282
7	7	170	171	180
8	4	7	18	19
9	8	177	170	178
10	2	284	283	297
11	6	142	153	165
12	6	242	241	253
13	7	78	79	80
14	7	324	323	338
15	4	49	64	63
16	3	14	32	33
17	4	328	329	347
18	6	326	325	340
19	6	109	108	120
20	4	12	16	17
21	7	144	143	159
22	4	52	63	64
23	6	57	56	71
24	6	186	185	201
25	7	303	304	305
26	5	172	181	182
27	6	57	61	73
28	8	173	168	174
29	3	59	77	78
30	7	362	363	364
31	2	12	13	27
32	7	349	348	353
33	7	306	305	312
34	7	7	8	23
35	7	364	365	366
36	7	215	214	220
37	1	136	138	139
38	7	259	260	267
39	6	151	152	164
40	7	124	125	126
41	7	80	79	85
42	7	304	305	306
43	4	230	229	244
44	6	244	243	255
45	5	240	239	257
46	4	53	54	62
47	4	326	327	331
48	8	87	80	88
49	6	321	320	336
50	4	322	333	334
51	4	9	10	11
52	7	259	258	263
53	4	278	279	280
54	4	320	321	322
55	4	96	97	108
56	4	102	106	107
57	7	77	78	84
58	7	167	168	169
59	7	322	323	324
60	6	144	152	164
61	8	371	364	372
62	6	107	106	118
63	4	140	139	154
64	4	101	102	103
65	7	170	169	176
66	6	288	289	301
67	6	19	18	30
68	7	216	215	222
69	7	34	35	43
70	2	91	93	110
71	8	44	36	45
72	4	381	382	393
73	1	46	48	49
74	4	143	144	152
75	7	35	34	40
76	3	126	127	136
77	4	58	57	61
78	7	361	362	367
79	4	97	108	109
80	4	189	197	196
81	4	10	11	12
82	6	49	50	66
83	6	64	63	75
84	5	60	59	77
85	8	367	362	368
86	6	100	101	116
87	4	384	385	386
88	6	281	280	295
89	4	237	241	242
90	6	94	109	121
91	7	122	123	129
92	7	125	126	127
93	4	137	136	138
94	2	194	193	207
95	7	303	304	310
96	6	279	287	299
97	7	212	213	218
98	8	398	383	399
99	4	318	319	320
100	7	347	348	354
101	6	192	196	208
102	7	169	170	171
103	7	261	260	268
104	8	312	305	313
105	4	378	379	394
106	4	319	334	333
107	4	379	394	393
108	4	3	1	361
109	7	363	364	372
110	7	213	214	215
111	4	184	199	198
112	6	379	380	396
113	4	13	12	16
114	4	233	234	242
115	4	93	94	109
116	7	144	143	158
117	6	9	10	25
118	7	364	365	374
119	1	102	103	104
120	6	4	5	21
121	4	103	104	122
122	4	278	277	288
123	4	324	332	331
124	6	391	392	403
125	2	237	238	252
126	2	327	328	342
127	7	322	323	338
128	7	257	258	264
129	4	272	271	273
130	4	281	282	286
131	8	308	303	309
132	1	12	13	14
133	2	329	328	342
134	7	215	216	225
135	7	97	98	114
136	7	123	124	125
137	7	79	78	84
138	7	364	363	370
139	8	373	365	374
140	4	10	9	17
141	4	6	7	18
142	7	348	349	350
143	7	126	125	132
144	4	307	316	318
145	7	9	8	24
146	7	279	278	293
147	7	350	351	352
148	2	4	3	20
149	6	139	154	166
150	1	237	238	239
151	6	10	11	26
152	7	351	350	357
153	6	327	326	341
154	6	331	332	344
155	6	322	321	337
156	7	352	351	359
157	3	284	302	303
158	4	193	192	196
159	7	77	78	83
160	6	198	199	211
161	4	231	232	243
162	4	282	286	287
163	2	49	48	65
164	4	232	243	244
165	7	382	383	384
166	4	144	152	151
167	7	170	169	175
168	4	96	97	98
169	7	361	362	363
170	7	260	261	262
171	4	182	181	183
172	7	34	35	42
173	8	218	213	219
174	4	384	392	391
175	8	132	125	133
176	1	181	183	184
177	5	195	194	212
178	7	262	261	269
179	4	383	382	393
180	6	387	386	401
181	4	274	289	288
182	7	142	143	159
183	4	141	142	153
184	4	380	381	382
185	6	99	100	115
186	6	191	190	205
187	4	275	276	277
188	8	128	123	129
189	6	94	95	111
190	2	136	138	155
191	6	327	331	343
192	7	363	364	371
193	4	98	99	100
194	7	171	170	177
195	4	190	189	197
196	7	214	213	219
197	7	364	365	373
198	2	376	378	395
199	7	258	259	266
200	4	100	101	102
201	6	196	197	209
202	7	124	125	133
203	8	224	216	225
204	4	352	376	378
205	6	190	191	206
206	4	100	99	107
207	8	113	98	114
208	7	304	305	313
209	6	382	393	404
210	7	257	258	263
211	7	215	216	224
212	8	357	350	358
213	7	7	8	9
214	7	363	362	367
215	4	378	379	380
216	7	97	98	113
217	7	80	81	89
218	2	149	148	162
219	4	13	14	15
220	4	191	192	196
221	4	51	52	63
222	6	229	230	246
223	7	350	351	360