Title

486 atoms
503 bonds
986 angles
2175 dihedrals
102 impropers

11 atom types
12 bond types
9 angle types
29 dihedral types
2 improper types
-27.0189991 72.9810009 xlo xhi
-3.520999908 96.47900009 ylo yhi
-1.921000004 98.079 zlo zhi
0.0 0.0 0.0 xy xz yz

Masses

1	12.01078
2	15.99943
3	14.00672
4	12.01078
5	1.007947
6	1.007947
7	1.007947
8	15.99943
9	15.99943
10	1.007947
11	12.01078


Pair Coeffs

1	0.086879315	3.4806469
2	0.2102061	3.0398122
3	0.16769152	3.206876
4	0.10884061	3.3795318
5	0.014090815	1.1034277
6	0.016409246	2.5832257
7	0.015779483	2.6445434
8	0.16846514	3.0251065
9	0.20947353	2.99716
10	1.2326e-05	0.53453923
11	0.21	3.3996695

Bond Coeffs

1 harmonic	582.698766451	1.225198386222
2 harmonic	492.76746816345	1.381897776683
3 harmonic	301.15400723785	1.345741232799
4 harmonic	352.0565580496	1.450098586273
5 harmonic	505.144496193	1.019481865027
6 harmonic	264.62148576755	1.52190126495
7 harmonic	370.04670688625	1.093899492634
8 harmonic	366.7408841747	1.425895053732
9 harmonic	329.96998057905	1.427343958716
10 harmonic	543.5267831885	0.9716763312559
11 harmonic	366.34047229585	1.464762957261
12 harmonic	602.81384337	1.196112346392


Angle Coeffs

1 harmonic	55.42182150775	117.3465570514
2 harmonic	63.44422595415	115.5071327674
3 harmonic	65.09061609600001	110.3538806181
4 harmonic	57.8982893754	126.8062420451
5 harmonic	201.41175231035	127.4691416191
6 harmonic	53.20531626545	116.5475862634
7 harmonic	48.776492647595	115.6030999533
8 harmonic	55.07882548015	112.8714009681
9 harmonic	33.56981613361	180


Dihedral Coeffs

1 fourier 1	-0.1488678166443	4	180
2 fourier 1	-0.1230328948768	3	180
3 fourier 1	0.2939295466901	2	0
4 fourier 1	-0.3024127022865	1	0
5 fourier 1	0.182238503271	2	0
6 fourier 1	0.02972342374561	3	0
7 fourier 1	0.1918272375143	3	0
8 fourier 1	0.9202179876409	1	180
9 fourier 1	0.0473758381877	3	0
10 fourier 1	1.809047390003	2	180
11 fourier 1	-0.04816277792592	1	0
12 fourier 1	0.4860993122944	2	180
13 fourier 1	0.8916986138746	1	0
14 fourier 1	1.163809172478	2	180
15 fourier 1	0.1679186987369	1	180
16 fourier 1	2.779853741805	2	180
17 fourier 1	0.1155372516788	3	0
18 fourier 1	0.09223874044423	3	0
19 fourier 1	0.3159935921949	2	180
20 fourier 1	0.3247796806857	1	180
21 fourier 1	0.1040663847541	3	0
22 fourier 1	0.1911926717192	3	0
23 fourier 1	0.1115525666802	3	0
24 fourier 1	0.3432490222662	1	0
25 fourier 1	0.3445382149273	3	0
26 fourier 1	0.1364556373303	1	0
27 fourier 1	0.3026390167484	3	0
28 fourier 1	-1.382973039546	1	0
29 fourier 1	0	1	0


Improper Coeffs

1 0.3333333333333333	-1	2
2 3.5	-1	2


Atoms

1	4	1	0.77722698	-2.7550001	2.7030001	-0.47799999
2	4	2	-0.63085997	-2.2679999	2.9890001	0.648
3	4	3	-0.45445499	-3.013	1.344	-0.84799999
4	4	4	0.017680001	-2.7079999	0.207	0.02
5	4	4	-0.079928003	-1.4630001	-0.54900002	-0.48300001
6	4	4	-0.17484599	-1.2690001	-1.847	0.32600001
7	4	4	-0.13492601	-0.028999999	-2.6170001	-0.145
8	4	4	-0.17484599	1.229	-1.7460001	-0.050000001
9	4	4	-0.079928003	1.053	-0.44400001	-0.85699999
10	4	4	0.017680001	2.325	0.43099999	-0.83600003
11	4	3	-0.45445499	2.6819999	0.89899999	0.50599998
12	4	1	0.77722698	3.8280001	1.727	0.72500002
13	4	2	-0.63085997	4.5640001	2.0769999	-0.236
14	4	4	-0.182025	-0.198	0.333	-0.39300001
15	4	5	0.31962299	-3.368	1.155	-1.812
16	4	6	0.063736998	-3.5829999	-0.479	0.012
17	4	6	0.063736998	-2.5610001	0.53600001	1.072
18	4	7	0.075700998	-1.633	-0.82300001	-1.549
19	4	7	0.092354998	-1.164	-1.61	1.408
20	4	7	0.092354998	-2.1600001	-2.5009999	0.204
21	4	7	0.081854001	0.103	-3.5209999	0.48699999
22	4	7	0.081854001	-0.17399999	-2.954	-1.1950001
23	4	7	0.092354998	1.431	-1.525	1.02
24	4	7	0.092354998	2.0929999	-2.3199999	-0.44999999
25	4	7	0.075700998	0.88999999	-0.73100001	-1.921
26	4	6	0.063736998	3.1730001	-0.154	-1.2539999
27	4	6	0.063736998	2.168	1.311	-1.497
28	4	5	0.31962299	2.112	0.64200002	1.341
29	4	7	0.097949997	-0.071000002	0.68400002	0.65399998
30	4	7	0.097949997	-0.322	1.226	-1.0420001
31	12	8	-0.48900899	4.0580001	2.043	1.6849999
32	12	4	0.088909999	3.803	0.96399999	2.546
33	12	4	-0.074496001	2.3900001	1.072	3.148
34	12	4	-0.166831	2.204	0.033	4.2839999
35	12	4	-0.166831	0.72899997	-0.33399999	4.553
36	12	4	-0.074496001	-0.227	0.80699998	4.1599998
37	12	4	0.088909999	-1.683	0.47600001	4.539
38	12	8	-0.48900899	-1.819	0.34099999	5.9289999
39	12	4	-0.166831	-0.116	1.1160001	2.6459999
40	12	4	-0.166831	1.301	0.903	2.0710001
41	12	6	0.093736	4.5510001	0.99800003	3.3659999
42	12	6	0.093736	3.931	-0.011	2.0190001
43	12	7	0.083231002	2.2869999	2.0899999	3.586
44	12	7	0.091894999	2.652	0.44499999	5.2140002
45	12	7	0.091894999	2.753	-0.90499997	4.0450001
46	12	7	0.091894999	0.46700001	-1.245	3.97
47	12	7	0.091894999	0.61299998	-0.583	5.6300001
48	12	7	0.083231002	0.071999997	1.719	4.724
49	12	6	0.093736	-1.9910001	-0.477	4.0580001
50	12	6	0.093736	-2.365	1.275	4.1690001
51	12	7	0.091894999	-0.81999999	0.47799999	2.0669999
52	12	7	0.091894999	-0.42199999	2.1719999	2.48
53	12	7	0.091894999	1.372	-0.121	1.641
54	12	7	0.091894999	1.459	1.625	1.242
55	5	1	0.77722698	-1.793	1.299	6.3249998
56	5	2	-0.63085997	-2.796	2.05	6.1929998
57	5	3	-0.45445499	-0.61699998	1.751	7.006
58	5	4	0.017680001	-0.47999999	3.0969999	7.5609999
59	5	4	-0.079928003	0.454	3.9579999	6.6900001
60	5	4	-0.17484599	0.736	5.3039999	7.3870001
61	5	4	-0.13492601	1.656	6.1890001	6.5370002
62	5	4	-0.17484599	1.0549999	6.434	5.1479998
63	5	4	-0.079928003	0.76899999	5.0970001	4.4349999
64	5	4	0.017680001	0.221	5.3039999	3.007
65	5	3	-0.45445499	-1.0700001	5.9970002	2.9779999
66	5	1	0.77722698	-1.738	6.2750001	1.744
67	5	2	-0.63085997	-1.232	5.9289999	0.64300001
68	5	4	-0.182025	-0.15099999	4.198	5.289
69	5	5	0.31962299	0.207	1.11	7.0440001
70	5	6	0.063736998	-0.052000001	3.0079999	8.5830002
71	5	6	0.063736998	-1.473	3.5880001	7.665
72	5	7	0.075700998	1.419	3.414	6.5749998
73	5	7	0.092354998	-0.219	5.8429999	7.5770001
74	5	7	0.092354998	1.227	5.1220002	8.368
75	5	7	0.081854001	1.803	7.165	7.0500002
76	5	7	0.081854001	2.652	5.7049999	6.4349999
77	5	7	0.092354998	0.125	7.0300002	5.2600002
78	5	7	0.092354998	1.774	7.0310001	4.5469999
79	5	7	0.075700998	1.742	4.5650001	4.3210001
80	5	6	0.063736998	0.95999998	5.8889999	2.4170001
81	5	6	0.063736998	0.111	4.3119998	2.5150001
82	5	5	0.31962299	-1.539	6.309	3.8559999
83	5	7	0.097949997	-1.155	4.6599998	5.3979998
84	5	7	0.097949997	-0.27700001	3.223	4.7690001
85	13	8	-0.48900899	-2.651	6.7680001	1.753
86	13	4	0.088909999	-2.572	7.7600002	2.7420001
87	13	4	-0.074496001	-3.151	7.2470002	4.073
88	13	4	-0.166831	-3.3010001	8.4119997	5.085
89	13	4	-0.166831	-3.3169999	7.9559999	6.559
90	13	4	-0.074496001	-3.835	6.513	6.7069998
91	13	4	0.088909999	-3.957	6.1090002	8.1890001
92	13	8	-0.48900899	-4.8990002	6.9099998	8.8500004
93	13	4	-0.166831	-2.9189999	5.5219998	5.9460001
94	13	4	-0.166831	-2.29	6.1170001	4.6680002
95	13	6	0.093736	-3.1689999	8.632	2.398
96	13	6	0.093736	-1.522	8.1099997	2.881
97	13	7	0.083231002	-4.165	6.835	3.8640001
98	13	7	0.091894999	-4.2459998	8.9530001	4.8610001
99	13	7	0.091894999	-2.47	9.1420002	4.9619999
100	13	7	0.091894999	-2.2850001	8.0150003	6.9720001
101	13	7	0.091894999	-3.9519999	8.6560001	7.1440001
102	13	7	0.083231002	-4.8530002	6.4629998	6.257
103	13	6	0.093736	-2.974	6.2259998	8.6940002
104	13	6	0.093736	-4.25	5.0370002	8.2690001
105	13	7	0.091894999	-2.0929999	5.1729999	6.605
106	13	7	0.091894999	-3.52	4.6259999	5.6739998
107	13	7	0.091894999	-1.28	6.5190001	4.9089999
108	13	7	0.091894999	-2.1559999	5.3000002	3.9260001
109	6	1	0.77722698	-5.835	6.5819998	8.5450001
110	6	2	-0.63085997	-6.2859998	5.4959998	8.9960003
111	6	3	-0.45445499	-6.5900002	7.3660002	7.6149998
112	6	4	0.017680001	-7.9000001	6.961	7.105
113	6	4	-0.079928003	-7.7940001	6.474	5.6469998
114	6	4	-0.17484599	-9.2019997	6.2329998	5.0650001
115	6	4	-0.13492601	-9.1280003	5.7360001	3.6159999
116	6	4	-0.17484599	-8.2919998	4.4549999	3.516
117	6	4	-0.079928003	-6.8790002	4.6799998	4.0900002
118	6	4	0.017680001	-5.9860001	3.428	3.9489999
119	6	3	-0.45445499	-6.487	2.273	4.698
120	6	1	0.77722698	-5.7919998	1.024	4.6919999
121	6	2	-0.63085997	-4.724	0.88200003	4.039
122	6	4	-0.182025	-6.9460001	5.1869998	5.5469999
123	6	5	0.31962299	-6.152	8.2329998	7.2309999
124	6	6	0.063736998	-8.5769997	7.842	7.1500001
125	6	6	0.063736998	-8.3509998	6.171	7.744
126	6	7	0.075700998	-7.3010001	7.2750001	5.0500002
127	6	7	0.092354998	-9.7460003	5.4840002	5.6830001
128	6	7	0.092354998	-9.783	7.1810002	5.086
129	6	7	0.081854001	-10.156	5.533	3.2460001
130	6	7	0.081854001	-8.684	6.526	2.9719999
131	6	7	0.092354998	-8.816	3.642	4.0599999
132	6	7	0.092354998	-8.2180004	4.1589999	2.447
133	6	7	0.075700998	-6.395	5.4780002	3.4820001
134	6	6	0.063736998	-5.9120002	3.158	2.8729999
135	6	6	0.063736998	-4.961	3.674	4.303
136	6	5	0.31962299	-7.3670001	2.3280001	5.257
137	6	7	0.097949997	-7.381	4.4099998	6.21
138	6	7	0.097949997	-5.9120002	5.3969998	5.8969998
139	14	8	-0.48900899	-6.1690001	0.222	5.2319999
140	14	4	0.088909999	-7.5640001	0.244	5.0780001
141	14	4	-0.074496001	-8.2279997	0.98699999	6.2509999
142	14	4	-0.166831	-9.7659998	0.79100001	6.217
143	14	4	-0.166831	-10.549	1.9	6.9510002
144	14	4	-0.074496001	-9.7110004	2.552	8.0670004
145	14	4	0.088909999	-10.54	3.5739999	8.868
146	14	8	-0.48900899	-11.609	2.947	9.5249996
147	14	4	-0.166831	-8.4429998	3.2190001	7.48
148	14	4	-0.166831	-7.8699999	2.4860001	6.2480001
149	14	6	0.093736	-7.9219999	-0.80800003	5.0650001
150	14	6	0.093736	-7.855	0.70700002	4.1059999
151	14	7	0.083231002	-7.8400002	0.542	7.1960001
152	14	7	0.091894999	-10.005	-0.191	6.6799998
153	14	7	0.091894999	-10.129	0.75400001	5.1659999
154	14	7	0.091894999	-10.849	2.6819999	6.2189999
155	14	7	0.091894999	-11.48	1.462	7.3720002
156	14	7	0.083231002	-9.3889999	1.75	8.7700005
157	14	6	0.093736	-10.949	4.3470001	8.1829996
158	14	6	0.093736	-9.8920002	4.0929999	9.6110001
159	14	7	0.091894999	-8.6590004	4.27	7.184
160	14	7	0.091894999	-7.6659999	3.2579999	8.2749996
161	14	7	0.091894999	-8.2749996	2.9530001	5.322
162	14	7	0.091894999	-6.7670002	2.622	6.2360001
163	7	1	0.77722698	-11.203	2.441	10.335
164	7	2	-0.63085997	-10.826	3.092	11.345
165	7	3	-0.45445499	-11.076	1.015	10.285
166	7	4	0.017680001	-10.484	0.226	11.366
167	7	4	-0.079928003	-9.0749998	-0.26100001	10.979
168	7	4	-0.17484599	-8.5439997	-1.244	12.043
169	7	4	-0.13492601	-7.1360002	-1.739	11.691
170	7	4	-0.17484599	-6.164	-0.565	11.53
171	7	4	-0.079928003	-6.678	0.42699999	10.466
172	7	4	0.017680001	-5.6929998	1.592	10.231
173	7	3	-0.45445499	-5.4920001	2.428	11.419
174	7	1	0.77722698	-4.618	3.559	11.393
175	7	2	-0.63085997	-3.993	3.869	10.344
176	7	4	-0.182025	-8.0979996	0.92400002	10.811
177	7	5	0.31962299	-11.355	0.52600002	9.4060001
178	7	6	0.063736998	-11.139	-0.65200001	11.552
179	7	6	0.063736998	-10.445	0.81	12.311
180	7	7	0.075700998	-9.1499996	-0.80400002	10.009
181	7	7	0.092354998	-8.5209999	-0.75	13.04
182	7	7	0.092354998	-9.2220001	-2.1229999	12.112
183	7	7	0.081854001	-6.77	-2.4089999	12.499
184	7	7	0.081854001	-7.171	-2.329	10.748
185	7	7	0.092354998	-6.0430002	-0.063000001	12.513
186	7	7	0.092354998	-5.171	-0.95999998	11.223
187	7	7	0.075700998	-6.743	-0.125	9.5010004
188	7	6	0.063736998	-4.7129998	1.177	9.9099998
189	7	6	0.063736998	-6.0760002	2.2260001	9.4020004
190	7	5	0.31962299	-5.9809999	2.221	12.317
191	7	7	0.097949997	-8.085	1.522	11.747
192	7	7	0.097949997	-8.4530001	1.582	9.9879999
193	15	8	-0.48900899	-4.4949999	4.1329999	12.248
194	15	4	0.088909999	-4.4559999	3.247	13.336
195	15	4	-0.074496001	-5.8520002	3.105	13.969
196	15	4	-0.166831	-5.7620001	2.3369999	15.313
197	15	4	-0.166831	-7.0840001	1.658	15.73
198	15	4	-0.074496001	-8.3100004	2.3829999	15.144
199	15	4	0.088909999	-9.625	1.768	15.659
200	15	8	-0.48900899	-9.7370005	1.9170001	17.049
201	15	4	-0.166831	-8.2690001	2.362	13.595
202	15	4	-0.166831	-6.8410001	2.4130001	13.012
203	15	6	0.093736	-3.7550001	3.664	14.091
204	15	6	0.093736	-4.0609999	2.25	13.03
205	15	7	0.083231002	-6.2340002	4.1300001	14.178
206	15	7	0.091894999	-5.454	3.053	16.107
207	15	7	0.091894999	-4.9759998	1.551	15.259
208	15	7	0.091894999	-7.0819998	0.60299999	15.375
209	15	7	0.091894999	-7.1409998	1.637	16.84
210	15	7	0.083231002	-8.2770004	3.444	15.479
211	15	6	0.093736	-9.6569996	0.68400002	15.415
212	15	6	0.093736	-10.495	2.2509999	15.157
213	15	7	0.091894999	-8.7659998	1.446	13.206
214	15	7	0.091894999	-8.849	3.233	13.217
215	15	7	0.091894999	-6.4889998	1.376	12.814
216	15	7	0.091894999	-6.875	2.9460001	12.038
217	8	1	0.77722698	-9.9770002	2.911	17.223
218	8	2	-0.63085997	-11.145	3.316	16.981001
219	8	3	-0.45445499	-8.9770002	3.802	17.73
220	8	4	0.017680001	-9.2189999	5.2249999	17.969
221	8	4	-0.079928003	-8.5439997	6.086	16.884001
222	8	4	-0.17484599	-8.6470003	7.5799999	17.254
223	8	4	-0.13492601	-7.9920001	8.4639997	16.186001
224	8	4	-0.17484599	-8.6199999	8.2200003	14.809
225	8	4	-0.079928003	-8.5229998	6.7309999	14.422
226	8	4	0.017680001	-9.0900002	6.4569998	13.012
227	8	3	-0.45445499	-10.52	6.7540002	12.896
228	8	1	0.77722698	-11.223	6.559	11.666
229	8	2	-0.63085997	-10.629	6.1230001	10.644
230	8	4	-0.182025	-9.1730003	5.8340001	15.496
231	8	5	0.31962299	-8.0100002	3.431	17.865999
232	8	6	0.063736998	-8.7939997	5.4850001	18.962999
233	8	6	0.063736998	-10.308	5.4429998	18.011999
234	8	7	0.075700998	-7.4660001	5.809	16.844
235	8	7	0.092354998	-9.7139997	7.8709998	17.368999
236	8	7	0.092354998	-8.1359997	7.7610002	18.225
237	8	7	0.081854001	-8.1230001	9.5319996	16.464001
238	8	7	0.081854001	-6.901	8.2539997	16.143
239	8	7	0.092354998	-9.6789999	8.5539999	14.834
240	8	7	0.092354998	-8.0839996	8.8380003	14.056
241	8	7	0.075700998	-7.441	6.467	14.379
242	8	6	0.063736998	-8.5299997	7.0710001	12.272
243	8	6	0.063736998	-8.9189997	5.388	12.756
244	8	5	0.31962299	-11.067	7.118	13.707
245	8	7	0.097949997	-10.267	6.0229998	15.551
246	8	7	0.097949997	-9.0229998	4.77	15.21
247	16	8	-0.48900899	-12.236	6.7779999	11.612
248	16	4	0.088909999	-12.442	7.9510002	12.355
249	16	4	-0.074496001	-12.876	7.6139998	13.793
250	16	4	-0.166831	-13.349	8.8929996	14.53
251	16	4	-0.166831	-13.258	8.7919998	16.068001
252	16	4	-0.074496001	-13.366	7.335	16.554001
253	16	4	0.088909999	-13.391	7.256	18.091999
254	16	8	-0.48900899	-14.524	7.9029999	18.608
255	16	4	-0.166831	-12.206	6.4809999	15.984
256	16	4	-0.166831	-11.746	6.9190001	14.577
257	16	6	0.093736	-13.25	8.5310001	11.858
258	16	6	0.093736	-11.529	8.5909996	12.36
259	16	7	0.083231002	-13.736	6.9089999	13.729
260	16	7	0.091894999	-14.403	9.0959997	14.24
261	16	7	0.091894999	-12.747	9.7709999	14.209
262	16	7	0.091894999	-12.287	9.217	16.406
263	16	7	0.091894999	-14.067	9.4099998	16.516001
264	16	7	0.083231002	-14.326	6.914	16.177
265	16	6	0.093736	-12.483	7.743	18.51
266	16	6	0.093736	-13.383	6.191	18.42
267	16	7	0.091894999	-11.324	6.5229998	16.660999
268	16	7	0.091894999	-12.537	5.4190001	15.946
269	16	7	0.091894999	-10.888	7.6199999	14.674
270	16	7	0.091894999	-11.386	6.0229998	14.027
271	9	1	0.77722698	-15.331	7.277	18.429001
272	9	2	-0.63085997	-15.475	6.2389998	19.129999
273	9	3	-0.45445499	-16.26	7.5999999	17.389
274	9	4	0.017680001	-17.403999	6.7550001	17.046
275	9	4	-0.079928003	-17.150999	6	15.727
276	9	4	-0.17484599	-18.434	5.2659998	15.284
277	9	4	-0.13492601	-18.209999	4.4949999	13.977
278	9	4	-0.17484599	-17.056	3.4960001	14.118
279	9	4	-0.079928003	-15.764	4.2140002	14.558
280	9	4	0.017680001	-14.563	3.2490001	14.65
281	9	3	-0.45445499	-14.739	2.2	15.659
282	9	1	0.77722698	-13.73	1.215	15.893
283	9	2	-0.63085997	-12.656	1.222	15.234
284	9	4	-0.182025	-15.984	4.9990001	15.869
285	9	5	0.31962299	-16.07	8.4429998	16.802
286	9	6	0.063736998	-18.295	7.4089999	16.931
287	9	6	0.063736998	-17.629999	6.0370002	17.865
288	9	7	0.075700998	-16.889	6.7480001	14.945
289	9	7	0.092354998	-18.761	4.5570002	16.077
290	9	7	0.092354998	-19.250999	6.0029998	15.125
291	9	7	0.081854001	-19.139	3.9449999	13.712
292	9	7	0.081854001	-17.99	5.2090001	13.153
293	9	7	0.092354998	-17.344999	2.7149999	14.854
294	9	7	0.092354998	-16.891001	2.9979999	13.138
295	9	7	0.075700998	-15.508	4.9549999	13.766
296	9	6	0.063736998	-14.404	2.7739999	13.657
297	9	6	0.063736998	-13.648	3.8329999	14.891
298	9	5	0.31962299	-15.607	2.142	16.236
299	9	7	0.097949997	-16.198999	4.303	16.708
300	9	7	0.097949997	-15.051	5.5510001	16.113001
301	17	8	-0.48900899	-13.881	0.484	16.613001
302	17	4	0.088909999	-15.228	0.096000001	16.528
303	17	4	-0.074496001	-16.083	0.87800002	17.541
304	17	4	-0.166831	-17.507999	0.27500001	17.628
305	17	4	-0.166831	-18.573	1.2690001	18.139
306	17	4	-0.074496001	-17.958	2.355	19.042
307	17	4	0.088909999	-19.042999	3.27	19.638
308	17	8	-0.48900899	-19.908001	2.5439999	20.469999
309	17	4	-0.166831	-16.912001	3.188	18.259001
310	17	4	-0.166831	-16.146	2.378	17.191
311	17	6	0.093736	-15.286	-0.98799998	16.764
312	17	6	0.093736	-15.622	0.233	15.494
313	17	7	0.083231002	-15.6	0.77700001	18.540001
314	17	7	0.091894999	-17.476999	-0.60600001	18.306
315	17	7	0.091894999	-17.834999	-0.093000002	16.629999
316	17	7	0.091894999	-19.066	1.757	17.268
317	17	7	0.091894999	-19.355	0.704	18.691
318	17	7	0.083231002	-17.438	1.848	19.886
319	17	6	0.093736	-19.639	3.7309999	18.822001
320	17	6	0.093736	-18.569	4.0970001	20.216
321	17	7	0.091894999	-17.402	4.0479999	17.750999
322	17	7	0.091894999	-16.184999	3.6110001	18.987
323	17	7	0.091894999	-16.652	2.4990001	16.207001
324	17	7	0.091894999	-15.122	2.7969999	17.094999
325	10	1	0.77722698	-19.389999	2.3599999	21.35
326	10	2	-0.63085997	-19.216999	3.2980001	22.172001
327	10	3	-0.45445499	-18.879999	1.048	21.608
328	10	4	0.017680001	-18.108	0.70999998	22.804001
329	10	4	-0.079928003	-16.614	0.54400003	22.464001
330	10	4	-0.17484599	-15.849	0.0040000002	23.690001
331	10	4	-0.13492601	-14.355	-0.161	23.385
332	10	4	-0.17484599	-13.738	1.163	22.922001
333	10	4	-0.079928003	-14.49	1.715	21.694
334	10	4	0.017680001	-13.856	3.0179999	21.16
335	10	3	-0.45445499	-13.905	4.1220002	22.124001
336	10	1	0.77722698	-13.371	5.4099998	21.806999
337	10	2	-0.63085997	-12.842	5.632	20.684999
338	10	4	-0.182025	-15.996	1.878	21.990999
339	10	5	0.31962299	-19.004	0.317	20.872
340	10	6	0.063736998	-18.500999	-0.24699999	23.209999
341	10	6	0.063736998	-18.24	1.48	23.594999
342	10	7	0.075700998	-16.528	-0.20200001	21.641001
343	10	7	0.092354998	-15.974	0.69700003	24.552
344	10	7	0.092354998	-16.263	-0.98500001	23.983
345	10	7	0.081854001	-13.831	-0.509	24.301001
346	10	7	0.081854001	-14.217	-0.935	22.598
347	10	7	0.092354998	-13.77	1.887	23.764
348	10	7	0.092354998	-12.672	0.98900002	22.66
349	10	7	0.075700998	-14.391	0.96399999	20.877001
350	10	6	0.063736998	-12.796	2.8199999	20.889
351	10	6	0.063736998	-14.387	3.3239999	20.232
352	10	5	0.31962299	-14.33	3.9990001	23.069
353	10	7	0.097949997	-16.157	2.652	22.771
354	10	7	0.097949997	-16.507	2.214	21.063
355	18	8	-0.48900899	-13.419	6.1729999	22.507999
356	18	4	0.088909999	-13.154	5.5970001	23.76
357	18	4	-0.074496001	-14.466	5.2329998	24.478001
358	18	4	-0.166831	-14.187	4.8390002	25.952
359	18	4	-0.166831	-15.279	3.9419999	26.572001
360	18	4	-0.074496001	-16.649	4.1609998	25.903999
361	18	4	0.088909999	-17.753	3.349	26.606001
362	18	8	-0.48900899	-17.917999	3.7709999	27.934
363	18	4	-0.166831	-16.584999	3.8050001	24.396999
364	18	4	-0.166831	-15.218	4.1040001	23.747
365	18	6	0.093736	-12.602	6.3449998	24.368999
366	18	6	0.093736	-12.499	4.6999998	23.660999
367	18	7	0.083231002	-15.115	6.138	24.476
368	18	7	0.091894999	-14.095	5.77	26.552999
369	18	7	0.091894999	-13.216	4.302	26.033001
370	18	7	0.091894999	-14.985	2.875	26.458
371	18	7	0.091894999	-15.342	4.1560001	27.662001
372	18	7	0.083231002	-16.91	5.2399998	25.996
373	18	6	0.093736	-17.485001	2.27	26.608
374	18	6	0.093736	-18.715	3.4560001	26.055
375	18	7	0.091894999	-16.809	2.7260001	24.243999
376	18	7	0.091894999	-17.375999	4.3800001	23.867001
377	18	7	0.091894999	-14.594	3.1830001	23.764
378	18	7	0.091894999	-15.384	4.3759999	22.681999
379	11	1	0.77722698	-18.421	4.677	27.896999
380	11	2	-0.63085997	-19.652	4.6890001	27.629999
381	11	3	-0.45445499	-17.708	5.8930001	28.145
382	11	4	0.017680001	-18.330999	7.2160001	28.077999
383	11	4	-0.079928003	-17.903	7.9590001	26.799
384	11	4	-0.17484599	-18.413	9.4139996	26.837
385	11	4	-0.13492601	-18.011	10.178	25.569
386	11	4	-0.17484599	-18.532	9.4720001	24.313
387	11	4	-0.079928003	-18.028	8.0159998	24.257
388	11	4	0.017680001	-18.482	7.2909999	22.971001
389	11	3	-0.45445499	-19.938	7.1599998	22.865
390	11	1	0.77722698	-20.547001	6.5120001	21.743999
391	11	2	-0.63085997	-19.844	6.0339999	20.815001
392	11	4	-0.182025	-18.423	7.243	25.533001
393	11	5	0.31962299	-16.677999	5.836	28.311001
394	11	6	0.063736998	-18.006001	7.796	28.968
395	11	6	0.063736998	-19.438999	7.1370001	28.127001
396	11	7	0.075700998	-16.790001	7.9790001	26.767
397	11	7	0.092354998	-19.521	9.427	26.938
398	11	7	0.092354998	-17.983	9.9390001	27.718
399	11	7	0.081854001	-18.431	11.206	25.612
400	11	7	0.081854001	-16.903	10.264	25.518999
401	11	7	0.092354998	-19.642	9.507	24.316
402	11	7	0.092354998	-18.174999	10.025	23.416
403	11	7	0.075700998	-16.916	8.0489998	24.219
404	11	6	0.063736998	-18.101999	7.849	22.087999
405	11	6	0.063736998	-18.024	6.277	22.948
406	11	5	0.31962299	-20.573	7.5359998	23.601999
407	11	7	0.097949997	-19.527	7.1389999	25.6
408	11	7	0.097949997	-17.986	6.2220001	25.48
409	19	8	-0.48900899	-21.58	6.434	21.695
410	19	4	0.088909999	-22.107	7.6440001	22.171
411	19	4	-0.074496001	-22.450001	7.5359998	23.667
412	19	4	-0.166831	-23.261999	8.7729998	24.129
413	19	4	-0.166831	-23.166	9.0480003	25.645
414	19	4	-0.074496001	-22.879	7.763	26.444
415	19	4	0.088909999	-22.9	8.0290003	27.961
416	19	8	-0.48900899	-24.172001	8.4469995	28.378
417	19	4	-0.166831	-21.523001	7.1459999	26.018
418	19	4	-0.166831	-21.183001	7.3639998	24.528
419	19	6	0.093736	-23.035999	7.8600001	21.6
420	19	6	0.093736	-21.402	8.4899998	21.99
421	19	7	0.083231002	-23.084999	6.631	23.802999
422	19	7	0.091894999	-24.327999	8.6160002	23.854
423	19	7	0.091894999	-22.917999	9.6850004	23.593
424	19	7	0.091894999	-22.351	9.7819996	25.833
425	19	7	0.091894999	-24.117001	9.5109997	25.986
426	19	7	0.083231002	-23.683001	7.027	26.216
427	19	6	0.093736	-22.164	8.8210001	28.216
428	19	6	0.093736	-22.606001	7.1069999	28.514
429	19	7	0.091894999	-20.694	7.5739999	26.625
430	19	7	0.091894999	-21.552	6.0539999	26.23
431	19	7	0.091894999	-20.549	8.2729998	24.424999
432	19	7	0.091894999	-20.586	6.4970002	24.171
433	3	8	-0.48900899	-2.96	3.4330001	-1.12
434	3	4	0.088909999	-3.2850001	4.5679998	-0.361
435	3	4	-0.074496001	-4.809	4.6799998	-0.177
436	3	4	-0.165989	-5.1830001	6.0549998	0.433
437	3	4	-0.158636	-6.5409999	6.0599999	1.166
438	3	4	-0.11514	-7.4990001	4.9910002	0.60699999
439	3	4	0.078230999	-8.8879995	5.0830002	1.265
440	3	9	-0.67460799	-9.4989996	6.3119998	0.97799999
441	3	4	-0.158636	-6.901	3.573	0.79000002
442	3	4	-0.165989	-5.3610001	3.5320001	0.68900001
443	3	6	0.093736	-2.9189999	5.4619999	-0.91000003
444	3	6	0.093736	-2.7709999	4.552	0.62900001
445	3	7	0.083231002	-5.277	4.6069999	-1.1849999
446	3	7	0.091894999	-5.2069998	6.8080001	-0.38499999
447	3	7	0.091894999	-4.4029999	6.3839998	1.155
448	3	7	0.092526004	-6.3740001	5.868	2.2490001
449	3	7	0.092526004	-6.994	7.072	1.073
450	3	7	0.089768998	-7.6259999	5.177	-0.48300001
451	3	6	0.081997	-8.7910004	4.9840002	2.368
452	3	6	0.081997	-9.5349998	4.2480001	0.90899998
453	3	10	0.37657499	-9.8070002	6.263	0.035
454	3	7	0.092526004	-7.1919999	3.155	1.779
455	3	7	0.092526004	-7.336	2.9059999	0.014
456	3	7	0.091894999	-4.9250002	3.6059999	1.71
457	3	7	0.091894999	-5.0609999	2.5480001	0.26800001
458	2	1	0.77722698	-24.802	7.5679998	28.382
459	2	2	-0.63085997	-25.754999	7.4860001	27.563
460	2	3	-0.45445499	-24.547001	6.5180001	29.320999
461	2	4	0.017680001	-25.35	5.2979999	29.382999
462	2	4	-0.080164	-25.02	4.3509998	28.211
463	2	4	-0.17484599	-25.966999	3.135	28.23
464	2	4	-0.135031	-25.65	2.168	27.083
465	2	4	-0.17054699	-24.191	1.704	27.142
466	2	4	-0.056451	-23.23	2.9100001	27.117001
467	2	4	0.166633	-21.757999	2.4590001	27.15
468	2	3	-0.64986402	-21.455999	1.735	28.379
469	2	11	0.59746403	-20.292	1.276	28.604
470	2	2	-0.49934	-19.158001	0.82999998	28.822001
471	2	4	-0.17771301	-23.549	3.885	28.27
472	2	5	0.31962299	-23.790001	6.6589999	30.027
473	2	6	0.063736998	-26.429001	5.5679998	29.368
474	2	6	0.063736998	-25.152	4.7789998	30.347
475	2	7	0.075700998	-25.181	4.901	27.257
476	2	7	0.092354998	-27.018999	3.4790001	28.125
477	2	7	0.092354998	-25.878	2.5969999	29.200001
478	2	7	0.081854001	-25.847	2.665	26.108
479	2	7	0.081854001	-26.319	1.283	27.156
480	2	7	0.092740998	-24.035999	1.105	28.066999
481	2	7	0.092740998	-23.988001	1.046	26.268999
482	2	7	0.079210997	-23.382	3.4519999	26.157
483	2	6	0.057730999	-21.555	1.8049999	26.271999
484	2	6	0.057730999	-21.099001	3.352	27.070999
485	2	7	0.098347001	-22.877001	4.7670002	28.191
486	2	7	0.098347001	-23.356001	3.392	29.249001

Bonds

1	1	1	2
2	2	1	3
3	3	1	433
4	4	3	4
5	5	3	15
6	6	4	5
7	7	4	16
8	7	4	17
9	6	5	6
10	6	5	14
11	7	5	18
12	6	6	7
13	7	6	19
14	7	6	20
15	6	7	8
16	7	7	21
17	7	7	22
18	6	8	9
19	7	8	23
20	7	8	24
21	6	9	10
22	6	9	14
23	7	9	25
24	4	10	11
25	7	10	26
26	7	10	27
27	2	11	12
28	5	11	28
29	1	12	13
30	3	12	31
31	7	14	29
32	7	14	30
33	8	31	32
34	6	32	33
35	7	32	41
36	7	32	42
37	6	33	34
38	6	33	40
39	7	33	43
40	6	34	35
41	7	34	44
42	7	34	45
43	6	35	36
44	7	35	46
45	7	35	47
46	6	36	37
47	6	36	39
48	7	36	48
49	8	37	38
50	7	37	49
51	7	37	50
52	3	38	55
53	6	39	40
54	7	39	51
55	7	39	52
56	7	40	53
57	7	40	54
58	1	55	56
59	2	55	57
60	4	57	58
61	5	57	69
62	6	58	59
63	7	58	70
64	7	58	71
65	6	59	60
66	6	59	68
67	7	59	72
68	6	60	61
69	7	60	73
70	7	60	74
71	6	61	62
72	7	61	75
73	7	61	76
74	6	62	63
75	7	62	77
76	7	62	78
77	6	63	64
78	6	63	68
79	7	63	79
80	4	64	65
81	7	64	80
82	7	64	81
83	2	65	66
84	5	65	82
85	1	66	67
86	3	66	85
87	7	68	83
88	7	68	84
89	8	85	86
90	6	86	87
91	7	86	95
92	7	86	96
93	6	87	88
94	6	87	94
95	7	87	97
96	6	88	89
97	7	88	98
98	7	88	99
99	6	89	90
100	7	89	100
101	7	89	101
102	6	90	91
103	6	90	93
104	7	90	102
105	8	91	92
106	7	91	103
107	7	91	104
108	3	92	109
109	6	93	94
110	7	93	105
111	7	93	106
112	7	94	107
113	7	94	108
114	1	109	110
115	2	109	111
116	4	111	112
117	5	111	123
118	6	112	113
119	7	112	124
120	7	112	125
121	6	113	114
122	6	113	122
123	7	113	126
124	6	114	115
125	7	114	127
126	7	114	128
127	6	115	116
128	7	115	129
129	7	115	130
130	6	116	117
131	7	116	131
132	7	116	132
133	6	117	118
134	6	117	122
135	7	117	133
136	4	118	119
137	7	118	134
138	7	118	135
139	2	119	120
140	5	119	136
141	1	120	121
142	3	120	139
143	7	122	137
144	7	122	138
145	8	139	140
146	6	140	141
147	7	140	149
148	7	140	150
149	6	141	142
150	6	141	148
151	7	141	151
152	6	142	143
153	7	142	152
154	7	142	153
155	6	143	144
156	7	143	154
157	7	143	155
158	6	144	145
159	6	144	147
160	7	144	156
161	8	145	146
162	7	145	157
163	7	145	158
164	3	146	163
165	6	147	148
166	7	147	159
167	7	147	160
168	7	148	161
169	7	148	162
170	1	163	164
171	2	163	165
172	4	165	166
173	5	165	177
174	6	166	167
175	7	166	178
176	7	166	179
177	6	167	168
178	6	167	176
179	7	167	180
180	6	168	169
181	7	168	181
182	7	168	182
183	6	169	170
184	7	169	183
185	7	169	184
186	6	170	171
187	7	170	185
188	7	170	186
189	6	171	172
190	6	171	176
191	7	171	187
192	4	172	173
193	7	172	188
194	7	172	189
195	2	173	174
196	5	173	190
197	1	174	175
198	3	174	193
199	7	176	191
200	7	176	192
201	8	193	194
202	6	194	195
203	7	194	203
204	7	194	204
205	6	195	196
206	6	195	202
207	7	195	205
208	6	196	197
209	7	196	206
210	7	196	207
211	6	197	198
212	7	197	208
213	7	197	209
214	6	198	199
215	6	198	201
216	7	198	210
217	8	199	200
218	7	199	211
219	7	199	212
220	3	200	217
221	6	201	202
222	7	201	213
223	7	201	214
224	7	202	215
225	7	202	216
226	1	217	218
227	2	217	219
228	4	219	220
229	5	219	231
230	6	220	221
231	7	220	232
232	7	220	233
233	6	221	222
234	6	221	230
235	7	221	234
236	6	222	223
237	7	222	235
238	7	222	236
239	6	223	224
240	7	223	237
241	7	223	238
242	6	224	225
243	7	224	239
244	7	224	240
245	6	225	226
246	6	225	230
247	7	225	241
248	4	226	227
249	7	226	242
250	7	226	243
251	2	227	228
252	5	227	244
253	1	228	229
254	3	228	247
255	7	230	245
256	7	230	246
257	8	247	248
258	6	248	249
259	7	248	257
260	7	248	258
261	6	249	250
262	6	249	256
263	7	249	259
264	6	250	251
265	7	250	260
266	7	250	261
267	6	251	252
268	7	251	262
269	7	251	263
270	6	252	253
271	6	252	255
272	7	252	264
273	8	253	254
274	7	253	265
275	7	253	266
276	3	254	271
277	6	255	256
278	7	255	267
279	7	255	268
280	7	256	269
281	7	256	270
282	1	271	272
283	2	271	273
284	4	273	274
285	5	273	285
286	6	274	275
287	7	274	286
288	7	274	287
289	6	275	276
290	6	275	284
291	7	275	288
292	6	276	277
293	7	276	289
294	7	276	290
295	6	277	278
296	7	277	291
297	7	277	292
298	6	278	279
299	7	278	293
300	7	278	294
301	6	279	280
302	6	279	284
303	7	279	295
304	4	280	281
305	7	280	296
306	7	280	297
307	2	281	282
308	5	281	298
309	1	282	283
310	3	282	301
311	7	284	299
312	7	284	300
313	8	301	302
314	6	302	303
315	7	302	311
316	7	302	312
317	6	303	304
318	6	303	310
319	7	303	313
320	6	304	305
321	7	304	314
322	7	304	315
323	6	305	306
324	7	305	316
325	7	305	317
326	6	306	307
327	6	306	309
328	7	306	318
329	8	307	308
330	7	307	319
331	7	307	320
332	3	308	325
333	6	309	310
334	7	309	321
335	7	309	322
336	7	310	323
337	7	310	324
338	1	325	326
339	2	325	327
340	4	327	328
341	5	327	339
342	6	328	329
343	7	328	340
344	7	328	341
345	6	329	330
346	6	329	338
347	7	329	342
348	6	330	331
349	7	330	343
350	7	330	344
351	6	331	332
352	7	331	345
353	7	331	346
354	6	332	333
355	7	332	347
356	7	332	348
357	6	333	334
358	6	333	338
359	7	333	349
360	4	334	335
361	7	334	350
362	7	334	351
363	2	335	336
364	5	335	352
365	1	336	337
366	3	336	355
367	7	338	353
368	7	338	354
369	8	355	356
370	6	356	357
371	7	356	365
372	7	356	366
373	6	357	358
374	6	357	364
375	7	357	367
376	6	358	359
377	7	358	368
378	7	358	369
379	6	359	360
380	7	359	370
381	7	359	371
382	6	360	361
383	6	360	363
384	7	360	372
385	8	361	362
386	7	361	373
387	7	361	374
388	3	362	379
389	6	363	364
390	7	363	375
391	7	363	376
392	7	364	377
393	7	364	378
394	1	379	380
395	2	379	381
396	4	381	382