Title

873 atoms
962 bonds
1562 angles
2473 dihedrals
1533 impropers

9 atom types
14 bond types
10 angle types
16 dihedral types
3 improper types
-84.00800323 15.99199677 xlo xhi
-118.0220032 -18.02200317 ylo yhi
-3.586999893 96.41300011 zlo zhi
0.0 0.0 0.0 xy xz yz

Masses

1	12.01078
2	15.99943
3	14.00672
4	1.007947
5	1.007947
6	15.99943
7	15.99943
8	1.007947
9	12.01078


Pair Coeffs

1	0.086879315	3.4806469
2	0.2102061	3.0398122
3	0.16769152	3.206876
4	0.014090815	1.1034277
5	0.015611343	2.5725815
6	0.16846514	3.0251065
7	0.20947353	2.99716
8	1.2326e-05	0.53453923
9	0.21	3.3996695

Bond Coeffs

1 harmonic	582.698766451	1.225198386222
2 harmonic	492.76746816345	1.381897776683
3 harmonic	301.15400723785	1.345741232799
4 harmonic	505.144496193	1.019481865027
5 harmonic	390.03554688505	1.390160554689
6 harmonic	360.7852444772	1.387193227181
7 harmonic	397.2545789619	1.085358495916
8 harmonic	279.1350963404	1.454628925034
9 harmonic	445.3060766333	1.328776712165
10 harmonic	425.69104206635	1.362945806494
11 harmonic	385.7604595587	1.369745182308
12 harmonic	543.5267831885	0.9716763312559
13 harmonic	382.5450169811	1.379244394267
14 harmonic	602.81384337	1.196112346392


Angle Coeffs

1 harmonic	63.44422595415	115.5071327674
2 harmonic	55.42182150775	117.3465570514
3 harmonic	65.09061609600001	110.3538806181
4 harmonic	57.8982893754	126.8062420451
5 harmonic	201.41175231035	127.4691416191
6 harmonic	34.066775159195	129.1835929926
7 harmonic	14.32262199324	138.3184368373
8 harmonic	39.628116874445	129.8027304608
9 harmonic	55.07882548015	112.8714009681
10 harmonic	33.56981613361	180


Dihedral Coeffs

1 fourier 1	1.193093382682	2	180
2 fourier 1	1.532232714475	2	180
3 fourier 1	0.4860993122944	2	180
4 fourier 1	0.8916986138746	1	0
5 fourier 1	1.809047390003	2	180
6 fourier 1	-0.04816277792592	1	0
7 fourier 1	2.779853741805	2	180
8 fourier 1	3.661930099076	2	180
9 fourier 1	0.9974165607242	2	180
10 fourier 1	1.57666786751	2	180
11 fourier 1	1.163235555439	2	180
12 fourier 1	3.731869940596	2	180
13 fourier 1	5.913282223828	2	180
14 fourier 1	0.8283030590042	2	180
15 fourier 1	1.550515418264	2	180
16 fourier 1	0	1	0


Improper Coeffs

1 0.3333333333333333	-1	2
2 3.5	-1	2
3 0.3666666666666667	-1	2


Atoms

1	4	1	0.84080398	10.979	-6.527	-1.335
2	4	2	-0.56629401	10.748	-5.5419998	-2.0840001
3	4	3	-0.49052599	10.473	-6.579	0.0049999999
4	4	4	0.33289599	10.909	-7.2740002	0.65100002
5	4	1	0.26582101	9.4980001	-5.6669998	0.53899997
6	4	1	-0.37399101	9.5480003	-5.3309999	1.915
7	4	5	0.21455801	10.329	-5.7389998	2.5450001
8	4	1	0.11545	8.5979996	-4.4650002	2.4820001
9	4	5	0.218832	8.6400003	-4.2049999	3.5309999
10	4	1	-0.246547	7.6059999	-3.951	1.654
11	4	1	-0.168982	7.5320001	-4.2880001	0.31999999
12	4	1	-0.14336	8.4580002	-5.1469998	-0.26800001
13	4	5	0.221618	8.3549995	-5.4180002	-1.311
14	4	1	0.71267599	6.3769999	-3.6040001	-0.248
15	4	2	-0.52952898	6.0229998	-3.648	-1.456
16	4	3	-0.52905703	5.7249999	-2.8239999	0.76200002
17	4	1	0.24089199	4.586	-1.9579999	0.60500002
18	4	1	-0.34635001	3.52	-2.3299999	-0.228
19	4	5	0.208242	3.5309999	-3.2809999	-0.74299997
20	4	1	-0.14792299	2.4119999	-1.49	-0.38
21	4	5	0.216289	1.602	-1.801	-1.029
22	4	1	-0.192148	2.3570001	-0.25400001	0.28600001
23	4	1	0.363738	1.174	0.625	0.119
24	4	3	-0.707228	-0.052000001	0.064000003	-0.068999998
25	4	1	0.363738	-1.186	0.80299997	-0.223
26	4	1	-0.192148	-2.4849999	0.105	-0.40400001
27	4	1	-0.14792299	-2.678	-1.168	0.162
28	4	5	0.216289	-1.891	-1.636	0.74199998
29	4	1	-0.34635001	-3.892	-1.842	0.0060000001
30	4	5	0.208242	-4.006	-2.8269999	0.44
31	4	1	0.24089199	-4.9359999	-1.263	-0.72899997
32	4	3	-0.52905703	-6.184	-1.959	-0.89399999
33	4	1	0.716115	-7.0359998	-1.971	-2.046
34	4	2	-0.52952898	-6.7649999	-1.411	-3.141
35	4	1	-0.246547	-8.2250004	-2.7709999	-1.778
36	4	1	0.11545	-9.3260002	-3.053	-2.5799999
37	4	5	0.218832	-9.3970003	-2.664	-3.5869999
38	4	1	-0.37399101	-10.349	-3.852	-2.0409999
39	4	5	0.21455801	-11.216	-4.0819998	-2.6470001
40	4	1	0.26582101	-10.249	-4.3720002	-0.72600001
41	4	3	-0.49052599	-11.333	-5.1630001	-0.206
42	4	4	0.33289599	-12.289	-5.0159998	-0.60299999
43	4	1	0.84080398	-11.179	-6.2379999	0.73000002
44	4	2	-0.56629401	-10.039	-6.664	1.0549999
45	4	1	-0.14336	-9.125	-4.046	0.07
46	4	5	0.221618	-9.0369997	-4.3740001	1.098
47	4	1	-0.168982	-8.1280003	-3.2509999	-0.49200001
48	4	1	0.71267599	-6.8759999	-2.7590001	0.072999999
49	4	2	-0.52952898	-6.4790001	-2.9590001	1.251
50	4	1	-0.346349	-4.7449999	0.003	-1.306
51	4	5	0.208242	-5.5409999	0.47799999	-1.864
52	4	1	-0.14792299	-3.5320001	0.68000001	-1.149
53	4	5	0.216289	-3.414	1.643	-1.628
54	4	1	-0.33118701	-1.1	2.2049999	-0.182
55	4	5	0.20980901	-1.993	2.8110001	-0.27700001
56	4	1	0.019399	0.147	2.826	-0.0070000002
57	4	1	-0.123277	0.25999999	4.3060002	0.044
58	4	1	-0.16754401	1.319	4.9619999	-0.60699999
59	4	5	0.21597999	2.0420001	4.401	-1.187
60	4	1	-0.16754401	1.448	6.3509998	-0.53200001
61	4	5	0.21597999	2.27	6.8260002	-1.054
62	4	1	-0.055560999	0.51999998	7.1170001	0.19400001
63	4	1	-0.057573002	0.67000002	8.592	0.29300001
64	4	1	-0.163113	1.942	9.1719999	0.454
65	4	5	0.218125	2.829	8.5530005	0.52200001
66	4	1	-0.175873	2.0799999	10.56	0.55800003
67	4	5	0.235015	3.062	10.995	0.68800002
68	4	1	-0.217544	0.95300001	11.384	0.50099999
69	4	5	0.23778801	1.0599999	12.458	0.58399999
70	4	1	-0.175873	-0.315	10.82	0.34400001
71	4	5	0.235015	-1.187	11.46	0.30000001
72	4	1	-0.163113	-0.458	9.4329996	0.237
73	4	5	0.218125	-1.45	9.0229998	0.097999997
74	4	1	-0.16754401	-0.54900002	6.4619999	0.83099997
75	4	5	0.21597999	-1.271	7.0209999	1.411
76	4	1	-0.16754401	-0.67699999	5.072	0.75800002
77	4	5	0.21597999	-1.495	4.5949998	1.286
78	4	1	-0.33118701	1.289	2.0239999	0.14
79	4	5	0.20980901	2.257	2.49	0.27399999
80	4	1	-0.14792299	3.424	0.113	1.127
81	4	5	0.216289	3.3989999	1.0420001	1.682
82	4	1	-0.346349	4.526	-0.73199999	1.285
83	4	5	0.208242	5.3400002	-0.41600001	1.924
84	4	1	0.716115	6.4980001	-3.0480001	1.9450001
85	4	2	-0.52952898	6.2249999	-2.5699999	3.0780001
86	12	6	-0.435256	-12.03	-6.7030001	1.126
87	12	1	0.37576899	-12.981	-5.9850001	1.849
88	12	1	-0.28377199	-14.103	-6.6469998	2.3610001
89	12	1	-0.046969	-15.065	-5.9380002	3.0869999
90	12	1	-0.28377199	-14.908	-4.566	3.3050001
91	12	1	0.37576899	-13.786	-3.8970001	2.7950001
92	12	6	-0.435256	-13.618	-2.53	3.0039999
93	12	1	-0.23814601	-12.824	-4.6079998	2.0669999
94	12	5	0.24451999	-14.229	-7.7090001	2.1949999
95	12	5	0.241401	-15.932	-6.4520001	3.4820001
96	12	5	0.24451999	-15.657	-4.0240002	3.868
97	12	5	0.24223199	-11.958	-4.092	1.673
98	5	1	0.84080398	-14.319	-1.969	3.5439999
99	5	2	-0.56629401	-14.955	-1.053	2.96
100	5	3	-0.49052599	-14.497	-2.2249999	4.9429998
101	5	4	0.33289599	-13.766	-2.8010001	5.4180002
102	5	1	0.26582101	-15.542	-1.649	5.7449999
103	5	1	-0.37399101	-15.292	-1.38	7.1139998
104	5	5	0.21455801	-14.316	-1.582	7.5370002
105	5	1	0.11545	-16.294001	-0.84299999	7.9390001
106	5	5	0.218832	-16.101	-0.63200003	8.9829998
107	5	1	-0.246547	-17.539	-0.588	7.3740001
108	5	1	-0.168982	-17.802	-0.86699998	6.0510001
109	5	1	-0.14336	-16.829	-1.404	5.21
110	5	5	0.221618	-17.075001	-1.641	4.184
111	5	1	0.71267599	-19.190001	-0.50700003	5.7880001
112	5	2	-0.52952898	-19.767	-0.58999997	4.6719999
113	5	3	-0.52905703	-19.796	0.0099999998	6.98
114	5	1	0.24089199	-21.129	0.528	7.1350002
115	5	1	-0.34635001	-22.211	-0.086999997	6.4860001
116	5	5	0.208242	-22.058001	-0.97000003	5.881
117	5	1	-0.14792299	-23.507	0.41600001	6.6360002
118	5	5	0.216289	-24.325001	-0.077	6.125
119	5	1	-0.192148	-23.743999	1.553	7.427
120	5	1	0.363738	-25.125	2.073	7.5799999
121	5	3	-0.707228	-26.17	1.201	7.573
122	5	1	0.363738	-27.464001	1.599	7.7160001
123	5	1	-0.192148	-28.540001	0.57499999	7.7129998
124	5	1	-0.14792299	-28.266001	-0.72600001	8.1689997
125	5	5	0.216289	-27.278999	-0.98299998	8.5360003
126	5	1	-0.34635001	-29.264	-1.705	8.177
127	5	5	0.208242	-29.018	-2.7019999	8.5200005
128	5	1	0.24089199	-30.555	-1.4069999	7.7189999
129	5	3	-0.52905703	-31.58	-2.415	7.724
130	5	1	0.716115	-32.623001	-2.6099999	6.7610002
131	5	2	-0.52952898	-32.748001	-1.944	5.698
132	5	1	-0.246547	-33.473	-3.723	7.164
133	5	1	0.11545	-34.605	-4.263	6.5619998
134	5	5	0.218832	-34.988998	-3.8610001	5.6329999
135	5	1	-0.37399101	-35.242001	-5.3410001	7.1989999
136	5	5	0.21455801	-36.125999	-5.7750001	6.7490001
137	5	1	0.26582101	-34.731998	-5.875	8.4099998
138	5	3	-0.49052599	-35.432999	-6.9619999	9.04
139	5	4	0.33289599	-36.455002	-7.0700002	8.8509998
140	5	1	0.84080398	-34.806	-7.9949999	9.8120003
141	5	2	-0.56629401	-33.551998	-8.1000004	9.8669996
142	5	1	-0.14336	-33.591	-5.2859998	9.0059996
143	5	5	0.221618	-33.205002	-5.6259999	9.9580002
144	5	1	-0.168982	-32.981998	-4.2179999	8.3509998
145	5	1	0.71267599	-31.815001	-3.4230001	8.7150002
146	5	2	-0.52952898	-31.138	-3.5599999	9.7690001
147	5	1	-0.346349	-30.830999	-0.111	7.2529998
148	5	5	0.208242	-31.823999	0.148	6.9099998
149	5	1	-0.14792299	-29.836	0.87	7.2459998
150	5	5	0.216289	-30.080999	1.849	6.8559999
151	5	1	-0.33118701	-27.745001	2.9660001	7.8860002
152	5	5	0.20980901	-28.764999	3.3010001	8.0270004
153	5	1	0.019399	-26.698	3.902	7.8839998
154	5	1	-0.123277	-26.972	5.3499999	8.0670004
155	5	1	-0.16754401	-26.287001	6.3070002	7.2989998
156	5	5	0.21597999	-25.582001	5.9990001	6.5370002
157	5	1	-0.16754401	-26.516001	7.671	7.493
158	5	5	0.21597999	-25.98	8.382	6.8759999
159	5	1	-0.055560999	-27.438	8.1099997	8.4589996
160	5	1	-0.057573002	-27.666	9.5620003	8.6809998
161	5	1	-0.163113	-26.587	10.467	8.6560001
162	5	5	0.218125	-25.576	10.119	8.4890003
163	5	1	-0.175873	-26.802	11.831	8.8769999
164	5	5	0.235015	-25.966	12.517	8.8620005
165	5	1	-0.217544	-28.091999	12.308	9.1230001
166	5	5	0.23778801	-28.257999	13.364	9.2959995
167	5	1	-0.175873	-29.17	11.421	9.1520004
168	5	5	0.235015	-30.169001	11.792	9.342
169	5	1	-0.163113	-28.961	10.056	8.9300003
170	5	5	0.218125	-29.815001	9.3909998	8.9390001
171	5	1	-0.16754401	-28.136	7.1529999	9.2150002
172	5	5	0.21597999	-28.84	7.4590001	9.9779997
173	5	1	-0.16754401	-27.905001	5.7880001	9.0229998
174	5	5	0.21597999	-28.436001	5.0760002	9.6440001
175	5	1	-0.33118701	-25.381001	3.4460001	7.7259998
176	5	5	0.20980901	-24.565001	4.1570001	7.7210002
177	5	1	-0.14792299	-22.659	2.1630001	8.0819998
178	5	5	0.216289	-22.809	3.02	8.7259998
179	5	1	-0.346349	-21.365	1.655	7.9380002
180	5	5	0.208242	-20.547001	2.154	8.4399996
181	5	1	0.716115	-18.757999	-0.046	7.9640002
182	5	2	-0.52952898	-18.9	0.28099999	9.1719999
183	13	6	-0.435256	-35.400002	-8.698	10.312
184	13	1	0.37576899	-36.331001	-8.3109999	11.274
185	13	1	-0.28377199	-37.103001	-9.2840004	11.918
186	13	1	-0.046969	-38.041	-8.9090004	12.885
187	13	1	-0.28377199	-38.209999	-7.5599999	13.211
188	13	1	0.37576899	-37.438999	-6.5799999	12.569
189	13	6	-0.435256	-37.597	-5.2329998	12.885
190	13	1	-0.23814601	-36.500999	-6.9580002	11.602
191	13	5	0.24451999	-36.977001	-10.33	11.669
192	13	5	0.241401	-38.637001	-9.6639996	13.381
193	13	5	0.24451999	-38.938	-7.277	13.961
194	13	5	0.24223199	-35.905998	-6.2010002	11.106
195	6	1	0.84080398	-38.291	-4.9169998	13.604
196	6	2	-0.56629401	-39.255001	-4.1880002	13.251
197	6	3	-0.49052599	-38.094002	-5.2789998	14.977
198	6	4	0.33289599	-37.153999	-5.6500001	15.241
199	6	1	0.26582101	-39.058998	-5.059	16.018999
200	6	1	-0.37399101	-38.604	-4.7969999	17.336
201	6	5	0.21455801	-37.542999	-4.7379999	17.542
202	6	1	0.11545	-39.514	-4.6020002	18.388
203	6	5	0.218832	-39.167	-4.3959999	19.392
204	6	1	-0.246547	-40.873001	-4.6789999	18.101
205	6	1	-0.168982	-41.327	-4.9559999	16.83
206	6	1	-0.14336	-40.448002	-5.158	15.768
207	6	5	0.221618	-40.834999	-5.4050002	14.788
208	6	1	0.71267599	-42.784	-4.987	16.875999
209	6	2	-0.52952898	-43.542	-5.1739998	15.888
210	6	3	-0.52905703	-43.237999	-4.7189999	18.209
211	6	1	0.24089199	-44.596001	-4.6020002	18.667999
212	6	1	-0.34635001	-45.589001	-5.4640002	18.176001
213	6	5	0.208242	-45.341	-6.2389998	17.465
214	6	1	-0.14792299	-46.91	-5.3509998	18.622999
215	6	5	0.216289	-47.658001	-6.0289998	18.228001
216	6	1	-0.192148	-47.265999	-4.3660002	19.559
217	6	1	0.363738	-48.669998	-4.2610002	20.027
218	6	3	-0.707228	-49.424	-5.3889999	20.127001
219	6	1	0.363738	-50.716999	-5.3769999	20.555
220	6	1	-0.192148	-51.459999	-6.6599998	20.65
221	6	1	-0.14792299	-50.761002	-7.8530002	20.907
222	6	5	0.216289	-49.687	-7.8410001	21.049999
223	6	1	-0.34635001	-51.439999	-9.0710001	21.002001
224	6	5	0.208242	-50.873001	-9.9750004	21.184999
225	6	1	0.24089199	-52.830002	-9.1239996	20.832001
226	6	3	-0.52905703	-53.528	-10.379	20.927
227	6	1	0.716115	-54.661999	-10.81	20.165001
228	6	2	-0.52952898	-55.18	-10.157	19.221001
229	6	1	-0.246547	-55.083	-12.135	20.604
230	6	1	0.11545	-56.132	-12.941	20.174999
231	6	5	0.218832	-56.796001	-12.618	19.384001
232	6	1	-0.37399101	-56.312	-14.184	20.806
233	6	5	0.21455801	-57.125	-14.826	20.489
234	6	1	0.26582101	-55.435001	-14.612	21.834
235	6	3	-0.49052599	-55.673	-15.88	22.469
236	6	4	0.33289599	-56.646999	-16.261	22.468
237	6	1	0.84080398	-54.646999	-16.732	22.995001
238	6	2	-0.56629401	-53.426998	-16.485001	22.799
239	6	1	-0.14336	-54.389999	-13.757	22.26
240	6	5	0.221618	-53.735001	-14.02	23.080999
241	6	1	-0.168982	-54.237999	-12.53	21.617001
242	6	1	0.71267599	-53.272999	-11.458	21.833
243	6	2	-0.52952898	-52.375999	-11.452	22.718
244	6	1	-0.346349	-53.532001	-7.9380002	20.566
245	6	5	0.208242	-54.606998	-7.9499998	20.447001
246	6	1	-0.14792299	-52.855	-6.717	20.472
247	6	5	0.216289	-53.426998	-5.8280001	20.240999
248	6	1	-0.33118701	-51.306	-4.1529999	20.917999
249	6	5	0.20980901	-52.325001	-4.1240001	21.285
250	6	1	0.019399	-50.569	-2.9630001	20.813999
251	6	1	-0.123277	-51.169998	-1.66	21.197001
252	6	1	-0.16754401	-50.941002	-0.51300001	20.417
253	6	5	0.21597999	-50.358002	-0.574	19.506001
254	6	1	-0.16754401	-51.476002	0.72100002	20.792999
255	6	5	0.21597999	-51.289001	1.582	20.163
256	6	1	-0.055560999	-52.254002	0.83700001	21.957001
257	6	1	-0.057573002	-52.805	2.155	22.370001
258	6	1	-0.163113	-52.034	3.326	22.235001
259	6	5	0.218125	-51.026001	3.283	21.841999
260	6	1	-0.175873	-52.549999	4.5630002	22.634001
261	6	5	0.235015	-51.946999	5.4549999	22.532
262	6	1	-0.217544	-53.837002	4.6469998	23.17
263	6	5	0.23778801	-54.235001	5.605	23.481001
264	6	1	-0.175873	-54.611	3.493	23.309999
265	6	5	0.235015	-55.608002	3.5599999	23.726
266	6	1	-0.163113	-54.101002	2.253	22.910999
267	6	5	0.218125	-54.727001	1.377	23.014
268	6	1	-0.16754401	-52.498001	-0.31299999	22.728001
269	6	5	0.21597999	-53.078999	-0.25299999	23.639
270	6	1	-0.16754401	-51.960999	-1.548	22.354
271	6	5	0.21597999	-52.140999	-2.4089999	22.987
272	6	1	-0.33118701	-49.242001	-3.0239999	20.361
273	6	5	0.20980901	-48.662998	-2.1140001	20.275
274	6	1	-0.14792299	-46.265999	-3.5090001	20.056
275	6	5	0.216289	-46.498001	-2.76	20.802999
276	6	1	-0.346349	-44.945999	-3.6270001	19.615
277	6	5	0.208242	-44.202	-2.9430001	20.000999
278	6	1	0.716115	-42.036999	-4.5289998	18.966
279	6	2	-0.52952898	-42.001999	-4.3130002	20.205999
280	14	6	-0.435256	-54.914001	-17.597	23.523001
281	14	1	0.37576899	-55.688	-17.533001	24.679001
282	14	1	-0.28377199	-56.021	-18.712999	25.353001
283	14	1	-0.046969	-56.798	-18.663	26.514999
284	14	1	-0.28377199	-57.243999	-17.431999	27.007
285	14	1	0.37576899	-56.912998	-16.246	26.336
286	14	6	-0.435256	-57.351002	-15.014	26.816
287	14	1	-0.23814601	-56.136002	-16.299	25.173
288	14	5	0.24451999	-55.679001	-19.669001	24.976999
289	14	5	0.241401	-57.054001	-19.577999	27.034
290	14	5	0.24451999	-57.845001	-17.402	27.907
291	14	5	0.24223199	-55.881001	-15.383	24.656
292	7	1	0.84080398	-57.933998	-14.94	27.683001
293	7	2	-0.56629401	-59.109001	-14.494	27.598
294	7	3	-0.49052599	-57.362999	-15.299	28.947001
295	7	4	0.33289599	-56.324001	-15.404	28.987
296	7	1	0.26582101	-58.108002	-15.408	30.172001
297	7	1	-0.37399101	-57.470001	-15.093	31.398001
298	7	5	0.21455801	-56.443001	-14.749	31.402
299	7	1	0.11545	-58.153999	-15.211	32.618999
300	7	5	0.218832	-57.668999	-14.965	33.554001
301	7	1	-0.246547	-59.473999	-15.651	32.589001
302	7	1	-0.168982	-60.097	-15.983	31.406
303	7	1	-0.14336	-59.442001	-15.879	30.181
304	7	5	0.221618	-59.948002	-16.177	29.271999
305	7	1	0.71267599	-61.450001	-16.423	31.726
306	7	2	-0.52952898	-62.323002	-16.767	30.886
307	7	3	-0.52905703	-61.665001	-16.357	33.140999
308	7	1	0.24089199	-62.875999	-16.648001	33.860001
309	7	1	-0.34635001	-63.688	-17.728001	33.479
310	7	5	0.208242	-63.400002	-18.367001	32.655998
311	7	1	-0.14792299	-64.864998	-18.011999	34.179001
312	7	5	0.216289	-65.473999	-18.851999	33.865002
313	7	1	-0.192148	-65.262001	-17.211	35.263
314	7	1	0.363738	-66.512001	-17.527	35.998001
315	7	3	-0.707228	-66.902	-18.823999	36.122002
316	7	1	0.363738	-68.030998	-19.195	36.786999
317	7	1	-0.192148	-68.371002	-20.638	36.887001
318	7	1	-0.14792299	-67.344002	-21.598	36.880001
319	7	5	0.216289	-66.306	-21.292999	36.816002
320	7	1	-0.34635001	-67.640999	-22.961	36.973999
321	7	5	0.208242	-66.830002	-23.677999	36.950001
322	7	1	0.24089199	-68.971001	-23.393	37.068001
323	7	3	-0.52905703	-69.276001	-24.796	37.160999
324	7	1	0.716115	-70.390999	-25.49	36.589001
325	7	2	-0.52952898	-71.250999	-24.962999	35.834999
326	7	1	-0.246547	-70.344002	-26.9	36.959
327	7	1	0.11545	-71.209999	-27.945	36.655998
328	7	5	0.218832	-72.086998	-27.783001	36.043999
329	7	1	-0.37399101	-70.916	-29.218	37.174999
330	7	5	0.21455801	-71.579002	-30.045	36.953999
331	7	1	0.26582101	-69.760002	-29.431999	37.966999
332	7	3	-0.49052599	-69.514999	-30.746	38.499001
333	7	4	0.33289599	-70.331001	-31.382999	38.644001
334	7	1	0.84080398	-68.212997	-31.299999	38.728001
335	7	2	-0.56629401	-67.171997	-30.712	38.330002
336	7	1	-0.14336	-68.913002	-28.34	38.273998
337	7	5	0.221618	-68.053001	-28.448	38.922001
338	7	1	-0.168982	-69.230003	-27.091	37.744999
339	7	1	0.71267599	-68.558998	-25.802999	37.884998
340	7	2	-0.52952898	-67.528999	-25.589001	38.577999
341	7	1	-0.346349	-70.000999	-22.438999	37.066002
342	7	5	0.208242	-71.035004	-22.747	37.153
343	7	1	-0.14792299	-69.707001	-21.075001	36.973
344	7	5	0.216289	-70.528	-20.371	36.949001
345	7	1	-0.33118701	-68.832001	-18.204	37.382
346	7	5	0.20980901	-69.720001	-18.479	37.937
347	7	1	0.019399	-68.473999	-16.851999	37.264999
348	7	1	-0.123277	-69.303001	-15.789	37.889
349	7	1	-0.16754401	-69.556	-14.588	37.203999
350	7	5	0.21597999	-69.183998	-14.439	36.198002
351	7	1	-0.16754401	-70.305	-13.572	37.801998
352	7	5	0.21597999	-70.489998	-12.664	37.243
353	7	1	-0.055560999	-70.820999	-13.735	39.099998
354	7	1	-0.057573002	-71.598999	-12.646	39.744999
355	7	1	-0.163113	-71.211998	-11.301	39.589001
356	7	5	0.218125	-70.334999	-11.041	39.009998
357	7	1	-0.175873	-71.940002	-10.278	40.207001
358	7	5	0.235015	-71.629997	-9.2489996	40.085999
359	7	1	-0.217544	-73.058998	-10.584	40.984001
360	7	5	0.23778801	-73.621002	-9.7919998	41.464001
361	7	1	-0.175873	-73.453003	-11.914	41.147999
362	7	5	0.235015	-74.320999	-12.148	41.75
363	7	1	-0.163113	-72.730003	-12.94	40.530998
364	7	5	0.218125	-73.066002	-13.961	40.659
365	7	1	-0.16754401	-70.583	-14.943	39.778
366	7	5	0.21597999	-70.953003	-15.093	40.785
367	7	1	-0.16754401	-69.831001	-15.959	39.181
368	7	5	0.21597999	-69.639	-16.865	39.743
369	7	1	-0.33118701	-67.306	-16.517	36.563999
370	7	5	0.20980901	-67.018997	-15.478	36.465
371	7	1	-0.14792299	-64.442001	-16.134001	35.647999
372	7	5	0.216289	-64.699997	-15.517	36.499001
373	7	1	-0.346349	-63.262001	-15.856	34.952999
374	7	5	0.208242	-62.660999	-15.011	35.259998
375	7	1	0.716115	-60.424999	-15.876	33.671001
376	7	2	-0.52952898	-60.186001	-15.719	34.896999
377	15	6	-0.435256	-68.124001	-32.23	39.203999
378	15	1	0.37576899	-68.624001	-32.441002	40.486
379	15	1	-0.28377199	-68.483002	-33.699001	41.084
380	15	1	-0.046969	-68.981003	-33.924	42.370998
381	15	1	-0.28377199	-69.621002	-32.893002	43.064999
382	15	1	0.37576899	-69.764999	-31.629999	42.472
383	15	6	-0.435256	-70.401001	-30.594	43.153
384	15	1	-0.23814601	-69.265999	-31.407	41.182999
385	15	5	0.24451999	-67.987999	-34.500999	40.550999
386	15	5	0.241401	-68.870003	-34.896999	42.831001
387	15	5	0.24451999	-70.002998	-33.075001	44.062
388	15	5	0.24223199	-69.377998	-30.431999	40.726002
389	8	1	0.84080398	-70.785004	-30.728001	44.118
390	8	2	-0.56629401	-72.026001	-30.625999	44.306
391	8	3	-0.49052599	-69.885002	-30.973	45.205002
392	8	4	0.33289599	-68.871002	-30.785	45.035
393	8	1	0.26582101	-70.296997	-31.346001	46.532001
394	8	1	-0.37399101	-69.519997	-30.924	47.639999
395	8	5	0.21455801	-68.643997	-30.306999	47.484001
396	8	1	0.11545	-69.874001	-31.288	48.949001
397	8	5	0.218832	-69.283997	-30.962	49.796001
398	8	1	-0.246547	-71.005997	-32.077999	49.125
399	8	1	-0.168982	-71.754997	-32.514	48.055
400	8	1	-0.14336	-71.426003	-32.172001	46.744999
401	8	5	0.221618	-72.015999	-32.555	45.923
402	8	1	0.71267599	-72.844002	-33.330002	48.578999
403	8	2	-0.52952898	-73.752998	-33.863998	47.889
404	8	3	-0.52905703	-72.764	-33.395	50.007999
405	8	1	0.24089199	-73.674004	-34.048	50.91
406	8	1	-0.34635001	-74.234001	-35.292	50.580002
407	8	5	0.208242	-73.969002	-35.785	49.653999
408	8	1	-0.14792299	-75.117996	-35.928001	51.457001
409	8	5	0.216289	-75.535004	-36.888	51.179001
410	8	1	-0.192148	-75.473	-35.324001	52.674999
411	8	1	0.363738	-76.408997	-36.011002	53.598
412	8	3	-0.707228	-76.407997	-37.370998	53.657001
413	8	1	0.363738	-77.231003	-38.075001	54.481998
414	8	1	-0.192148	-77.149002	-39.557999	54.493
415	8	1	-0.14792299	-75.931	-40.191002	54.189999
416	8	5	0.216289	-75.047997	-39.605	53.962002
417	8	1	-0.34635001	-75.830002	-41.584999	54.195999
418	8	5	0.208242	-74.883003	-42.043999	53.943001
419	8	1	0.24089199	-76.947998	-42.375999	54.495998
420	8	3	-0.52905703	-76.845001	-43.811001	54.498001
421	8	1	0.716115	-77.831001	-44.761002	54.078999
422	8	2	-0.52952898	-78.940002	-44.459999	53.563
423	8	1	-0.246547	-77.335999	-46.117001	54.284
424	8	1	0.11545	-77.939003	-47.348	54.042999
425	8	5	0.218832	-78.938004	-47.409	53.630001
426	8	1	-0.37399101	-77.217003	-48.511002	54.361
427	8	5	0.21455801	-77.668999	-49.479	54.185001
428	8	1	0.26582101	-75.904999	-48.431	54.890999
429	8	3	-0.49052599	-75.213997	-49.646999	55.226002
430	8	4	0.33289599	-75.782997	-50.493	55.456001
431	8	1	0.84080398	-73.793999	-49.825001	55.143002
432	8	2	-0.56629401	-73.054001	-48.951	54.618
433	8	1	-0.14336	-75.331001	-47.160999	55.144001
434	8	5	0.221618	-74.355003	-47.056	55.601002
435	8	1	-0.168982	-76.070999	-46.027	54.819
436	8	1	0.71267599	-75.75	-44.611	54.962002
437	8	2	-0.52952898	-74.691002	-44.150002	55.465
438	8	1	-0.346349	-78.168999	-41.749001	54.790001
439	8	5	0.208242	-79.042	-42.338001	55.040001
440	8	1	-0.14792299	-78.272003	-40.355	54.785999
441	8	5	0.216289	-79.236	-39.909	54.993
442	8	1	-0.33118701	-78.120003	-37.376999	55.319
443	8	5	0.20980901	-78.764999	-37.917	56.001999
444	8	1	0.019399	-78.166	-35.974998	55.278999
445	8	1	-0.123277	-79.094002	-35.217999	56.158001
446	8	1	-0.16754401	-79.793999	-34.104	55.662998
447	8	5	0.21597999	-79.696999	-33.808998	54.625
448	8	1	-0.16754401	-80.639999	-33.368999	56.495998
449	8	5	0.21597999	-81.172997	-32.522999	56.080002
450	8	1	-0.055560999	-80.807999	-33.731998	57.844002
451	8	1	-0.057573002	-81.691002	-32.937	58.736
452	8	1	-0.163113	-81.714996	-31.532	58.651001
453	8	5	0.218125	-81.081001	-31.009001	57.945
454	8	1	-0.175873	-82.539001	-30.785	59.5
455	8	5	0.235015	-82.543999	-29.705	59.43
456	8	1	-0.217544	-83.347	-31.427999	60.439999
457	8	5	0.23778801	-83.982002	-30.85	61.098
458	8	1	-0.175873	-83.331001	-32.820999	60.535
459	8	5	0.235015	-83.958	-33.319	61.264
460	8	1	-0.163113	-82.511002	-33.574001	59.688
461	8	5	0.218125	-82.529999	-34.653	59.769001
462	8	1	-0.16754401	-80.121002	-34.855999	58.334
463	8	5	0.21597999	-80.216003	-35.152	59.370998
464	8	1	-0.16754401	-79.272003	-35.591	57.500999
465	8	5	0.21597999	-78.732002	-36.432999	57.917999
466	8	1	-0.33118701	-77.304001	-35.292	54.407001
467	8	5	0.20980901	-77.330002	-34.210999	54.363998
468	8	1	-0.14792299	-74.904999	-34.080002	53.007
469	8	5	0.216289	-75.128998	-33.601002	53.952
470	8	1	-0.346349	-74.014999	-33.450001	52.133999
471	8	5	0.208242	-73.607002	-32.485001	52.407001
472	8	1	0.716115	-71.612	-32.612	50.339001
473	8	2	-0.52952898	-71.168999	-32.453999	51.507
474	16	6	-0.435256	-73.363998	-50.714001	55.493
475	16	1	0.37576899	-73.507004	-51.118999	56.819
476	16	1	-0.28377199	-72.915001	-52.313999	57.243999
477	16	1	-0.046969	-73.051003	-52.731998	58.570999
478	16	1	-0.28377199	-73.778999	-51.956001	59.479
479	16	1	0.37576899	-74.374001	-50.757	59.058998
480	16	6	-0.435256	-75.100998	-49.973999	59.952999
481	16	1	-0.23814601	-74.237	-50.341	57.729
482	16	5	0.24451999	-72.350998	-52.918999	56.544998
483	16	5	0.241401	-72.593002	-53.655998	58.896999
484	16	5	0.24451999	-73.878998	-52.285	60.505001
485	16	5	0.24223199	-74.695999	-49.415001	57.405998
486	9	1	0.84080398	-75.223	-50.257	60.953999
487	9	2	-0.56629401	-76.377998	-50.514999	61.384998
488	9	3	-0.49052599	-74.080002	-50.292999	61.819
489	9	4	0.33289599	-73.211998	-49.82	61.479
490	9	1	0.26582101	-74.088997	-50.828999	63.153
491	9	1	-0.37399101	-73.234001	-50.261002	64.129997
492	9	5	0.21455801	-72.606003	-49.416	63.875999
493	9	1	0.11545	-73.193001	-50.771999	65.438004
494	9	5	0.218832	-72.544998	-50.334999	66.185997
495	9	1	-0.246547	-74.012001	-51.855	65.742996
496	9	1	-0.168982	-74.829002	-52.431	64.794998
497	9	1	-0.14336	-74.888	-51.946999	63.490002
498	9	5	0.221618	-75.515999	-52.441002	62.759998
499	9	1	0.71267599	-75.527	-53.542999	65.428001
500	9	2	-0.52952898	-76.388	-54.276001	64.872002
501	9	3	-0.52905703	-75.132004	-53.653	66.801003
502	9	1	0.24089199	-75.625	-54.577	67.787003
503	9	1	-0.34635001	-75.891998	-55.91	67.441002
504	9	5	0.208242	-75.709	-56.264	66.434998
505	9	1	-0.14792299	-76.371002	-56.810001	68.399002
506	9	5	0.216289	-76.569	-57.834	68.106003
507	9	1	-0.192148	-76.606003	-56.388	69.719002
508	9	1	0.363738	-77.110001	-57.355	70.725998
509	9	3	-0.707228	-76.737	-58.66	70.640999
510	9	1	0.363738	-77.150002	-59.605999	71.528999
511	9	1	-0.192148	-76.679001	-61.005001	71.369003
512	9	1	-0.14792299	-75.43	-61.256001	70.775002
513	9	5	0.216289	-74.803001	-60.436001	70.445999
514	9	1	-0.34635001	-74.964996	-62.564999	70.614998
515	9	5	0.208242	-74.007004	-62.728001	70.139999
516	9	1	0.24089199	-75.745003	-63.651001	71.038002
517	9	3	-0.52905703	-75.267998	-64.998001	70.871002
518	9	1	0.716115	-76.035004	-66.165001	70.550003
519	9	2	-0.52952898	-77.266998	-66.162003	70.289001
520	9	1	-0.246547	-75.167999	-67.336998	70.513
521	9	1	0.11545	-75.460999	-68.674004	70.264999
522	9	5	0.218832	-76.472	-68.991997	70.044998
523	9	1	-0.37399101	-74.406998	-69.601997	70.316002
524	9	5	0.21455801	-74.613998	-70.648003	70.127998
525	9	1	0.26582101	-73.081001	-69.182999	70.591003
526	9	3	-0.49052599	-72.039001	-70.171997	70.658997
527	9	4	0.33289599	-72.302002	-71.153999	70.903
528	9	1	0.84080398	-70.672997	-69.942001	70.289001
529	9	2	-0.56629401	-70.319	-68.871002	69.726997
530	9	1	-0.14336	-72.821999	-67.818001	70.861
531	9	5	0.221618	-71.835999	-67.464996	71.133003
532	9	1	-0.168982	-73.888	-66.920998	70.804001
533	9	1	0.71267599	-73.929001	-65.481003	71.030998
534	9	2	-0.52952898	-72.946999	-64.766998	71.369003
535	9	1	-0.346349	-76.997002	-63.405998	71.623001
536	9	5	0.208242	-77.610001	-64.226997	71.972
537	9	1	-0.14792299	-77.462997	-62.098	71.786003
538	9	5	0.216289	-78.444	-61.951	72.218002
539	9	1	-0.33118701	-77.992996	-59.226002	72.588997
540	9	5	0.20980901	-78.313004	-59.957001	73.321999
541	9	1	0.019399	-78.415001	-57.891998	72.705002
542	9	1	-0.123277	-79.302002	-57.469002	73.819
543	9	1	-0.16754401	-80.360001	-56.573002	73.585999
544	9	5	0.21597999	-80.566002	-56.213001	72.585999
545	9	1	-0.16754401	-81.174004	-56.145	74.638
546	9	5	0.21597999	-81.987	-55.463001	74.421997
547	9	1	-0.055560999	-80.949997	-56.605	75.946999
548	9	1	-0.057573002	-81.801003	-56.132999	77.069
549	9	1	-0.163113	-82.212997	-54.787998	77.138
550	9	5	0.218125	-81.904999	-54.076	76.384003
551	9	1	-0.175873	-83.004997	-54.344002	78.202003
552	9	5	0.235015	-83.309998	-53.306999	78.248001
553	9	1	-0.217544	-83.396004	-55.233002	79.206001
554	9	5	0.23778801	-84.008003	-54.887001	80.029999
555	9	1	-0.175873	-82.994003	-56.568001	79.150002
556	9	5	0.235015	-83.297997	-57.256001	79.929001
557	9	1	-0.163113	-82.203003	-57.019001	78.087997
558	9	5	0.218125	-81.918999	-58.063	78.057999
559	9	1	-0.16754401	-79.903	-57.514999	76.176003
560	9	5	0.21597999	-79.694	-57.875	77.176003
561	9	1	-0.16754401	-79.085999	-57.941002	75.125
562	9	5	0.21597999	-78.267998	-58.618	75.341003
563	9	1	-0.33118701	-77.969002	-56.955002	71.761002
564	9	5	0.20980901	-78.288002	-55.923	71.837997
565	9	1	-0.14792299	-76.329002	-55.053001	70.065002
566	9	5	0.216289	-76.466003	-54.702	71.080002
567	9	1	-0.346349	-75.843002	-54.157001	69.109001
568	9	5	0.208242	-75.655998	-53.132	69.399002
569	9	1	0.716115	-74.183998	-52.595001	66.987
570	9	2	-0.52952898	-73.560997	-52.375999	68.058998
571	17	6	-0.435256	-69.959	-70.691002	70.455002
572	17	1	0.37576899	-69.706001	-71.182999	71.734001
573	17	1	-0.28377199	-68.744003	-72.182999	71.911003
574	17	1	-0.046969	-68.480003	-72.685997	73.189003
575	17	1	-0.28377199	-69.177002	-72.189003	74.293999
576	17	1	0.37576899	-70.141998	-71.185997	74.124001
577	17	6	-0.435256	-70.844002	-70.682999	75.217003
578	17	1	-0.23814601	-70.404999	-70.684998	72.843002
579	17	5	0.24451999	-68.200996	-72.570999	71.057999
580	17	5	0.241401	-67.735001	-73.459999	73.321999
581	17	5	0.24451999	-68.967003	-72.583	75.280998
582	17	5	0.24223199	-71.150002	-69.911003	72.711998
583	10	1	0.84080398	-70.670998	-71.036003	76.188004
584	10	2	-0.56629401	-71.598	-71.627998	76.801003
585	10	3	-0.49052599	-69.403999	-70.792	76.809998
586	10	4	0.33289599	-68.783997	-70.080002	76.362
587	10	1	0.26582101	-68.987	-71.373001	78.056999
588	10	1	-0.37399101	-68.125999	-70.636002	78.907997
589	10	5	0.21455801	-67.810997	-69.638	78.628998
590	10	1	0.11545	-67.675003	-71.178001	80.123001
591	10	5	0.218832	-67.022003	-70.613998	80.776001