Title

846 atoms
845 bonds
1634 angles
3039 dihedrals
102 impropers

11 atom types
12 bond types
9 angle types
29 dihedral types
2 improper types
-8.845000267 91.15499973 xlo xhi
-13.88300037 86.11699963 ylo yhi
-1.307999969 98.69200003 zlo zhi
0.0 0.0 0.0 xy xz yz

Masses

1	12.01078
2	15.99943
3	14.00672
4	12.01078
5	1.007947
6	1.007947
7	1.007947
8	15.99943
9	15.99943
10	1.007947
11	12.01078


Pair Coeffs

1	0.086879315	3.4806469
2	0.2102061	3.0398122
3	0.16769152	3.206876
4	0.10884061	3.3795318
5	0.014090815	1.1034277
6	0.016409246	2.5832257
7	0.015779483	2.6445434
8	0.16846514	3.0251065
9	0.20947353	2.99716
10	1.2326e-05	0.53453923
11	0.21	3.3996695

Bond Coeffs

1 harmonic	582.698766451	1.225198386222
2 harmonic	492.76746816345	1.381897776683
3 harmonic	301.15400723785	1.345741232799
4 harmonic	352.0565580496	1.450098586273
5 harmonic	505.144496193	1.019481865027
6 harmonic	264.62148576755	1.52190126495
7 harmonic	370.04670688625	1.093899492634
8 harmonic	366.7408841747	1.425895053732
9 harmonic	329.96998057905	1.427343958716
10 harmonic	543.5267831885	0.9716763312559
11 harmonic	366.34047229585	1.464762957261
12 harmonic	602.81384337	1.196112346392


Angle Coeffs

1 harmonic	55.42182150775	117.3465570514
2 harmonic	63.44422595415	115.5071327674
3 harmonic	65.09061609600001	110.3538806181
4 harmonic	57.8982893754	126.8062420451
5 harmonic	201.41175231035	127.4691416191
6 harmonic	53.20531626545	116.5475862634
7 harmonic	48.776492647595	115.6030999533
8 harmonic	55.07882548015	112.8714009681
9 harmonic	33.56981613361	180


Dihedral Coeffs

1 fourier 1	-0.1488678166443	4	180
2 fourier 1	-0.1230328948768	3	180
3 fourier 1	0.2939295466901	2	0
4 fourier 1	-0.3024127022865	1	0
5 fourier 1	0.182238503271	2	0
6 fourier 1	0.02972342374561	3	0
7 fourier 1	0.0473758381877	3	0
8 fourier 1	0.1918272375143	3	0
9 fourier 1	0.9202179876409	1	180
10 fourier 1	1.809047390003	2	180
11 fourier 1	-0.04816277792592	1	0
12 fourier 1	0.4860993122944	2	180
13 fourier 1	0.8916986138746	1	0
14 fourier 1	1.163809172478	2	180
15 fourier 1	0.1679186987369	1	180
16 fourier 1	2.779853741805	2	180
17 fourier 1	0.1155372516788	3	0
18 fourier 1	0.09223874044423	3	0
19 fourier 1	0.3159935921949	2	180
20 fourier 1	0.3247796806857	1	180
21 fourier 1	0.1040663847541	3	0
22 fourier 1	0.1911926717192	3	0
23 fourier 1	0.1115525666802	3	0
24 fourier 1	0.3432490222662	1	0
25 fourier 1	0.3445382149273	3	0
26 fourier 1	0.1364556373303	1	0
27 fourier 1	0.3026390167484	3	0
28 fourier 1	-1.382973039546	1	0
29 fourier 1	0	1	0


Improper Coeffs

1 0.3333333333333333	-1	2
2 3.5	-1	2


Atoms

1	4	1	0.77940398	-6.2540002	-0.243	-0.061999999
2	4	2	-0.64189798	-6.0450001	-1.472	-0.23999999
3	4	3	-0.473903	-5.1869998	0.70700002	-0.16
4	4	4	0.020987	-3.8099999	0.32100001	-0.46200001
5	4	4	-0.147792	-3.141	-0.28999999	0.77700001
6	4	4	-0.1443	-1.732	-0.82999998	0.484
7	4	4	-0.143889	-0.70700002	0.28799999	0.243
8	4	4	-0.143889	0.70700002	-0.28799999	0.088
9	4	4	-0.1443	1.732	0.82999998	-0.153
10	4	4	-0.147792	3.141	0.28999999	-0.44600001
11	4	4	0.020987	3.8099999	-0.32100001	0.79299998
12	4	3	-0.473903	5.1869998	-0.70700002	0.49000001
13	4	1	0.77940398	6.2540002	0.243	0.39300001
14	4	2	-0.64189798	6.0450001	1.472	0.57099998
15	4	5	0.31819201	-5.4180002	1.722	-0.071000002
16	4	6	0.045164999	-3.25	1.227	-0.77700001
17	4	6	0.045164999	-3.8	-0.40000001	-1.308
18	4	7	0.079628997	-3.095	0.46799999	1.589
19	4	7	0.079628997	-3.7609999	-1.135	1.1440001
20	4	7	0.078667998	-1.408	-1.431	1.3609999
21	4	7	0.078667998	-1.765	-1.51	-0.396
22	4	7	0.077936999	-0.722	0.995	1.101
23	4	7	0.077936999	-0.97100002	0.84399998	-0.68099999
24	4	7	0.077936999	0.722	-0.995	-0.76999998
25	4	7	0.077936999	0.97100002	-0.84399998	1.012
26	4	7	0.078667998	1.765	1.51	0.727
27	4	7	0.078667998	1.408	1.432	-1.031
28	4	7	0.079628997	3.7609999	1.135	-0.81300002
29	4	7	0.079628997	3.095	-0.46799999	-1.2589999
30	4	6	0.045164999	3.8	0.40000001	1.6390001
31	4	6	0.045164999	3.25	-1.227	1.108
32	4	5	0.31819201	5.4180002	-1.722	0.40099999
33	12	8	-0.50426	7.2140002	-0.085000001	0.17900001
34	12	4	0.11042	8.0970001	0.87	0.70499998
35	12	6	0.075491004	9.0139999	0.87800002	0.079999998
36	12	6	0.075491004	7.658	1.8940001	0.662
37	12	4	-0.141883	8.4879999	0.51499999	2.142
38	12	7	0.083355002	8.9040003	-0.51599997	2.165
39	12	7	0.083355002	9.2869997	1.215	2.4719999
40	12	4	-0.14282	7.2969999	0.61900002	3.105
41	12	7	0.079636998	6.8660002	1.64	3.0339999
42	12	7	0.079636998	6.5180001	-0.118	2.8099999
43	12	4	-0.143976	7.7360001	0.33899999	4.5500002
44	12	7	0.077936999	8.2320004	-0.65600002	4.585
45	12	7	0.077936999	8.4820004	1.096	4.875
46	12	4	-0.142644	6.5570002	0.31400001	5.5359998
47	12	7	0.077936999	5.7600002	-0.359	5.152
48	12	7	0.077936999	6.9289999	-0.12	6.4879999
49	12	4	-0.142644	5.9790001	1.715	5.803
50	12	7	0.077936999	5.5580001	2.1159999	4.8569999
51	12	7	0.077936999	6.7839999	2.4070001	6.1329999
52	12	4	-0.142644	4.8470001	1.696	6.8429999
53	12	7	0.077936999	4.27	2.638	6.7249999
54	12	7	0.077936999	4.158	0.84799999	6.638
55	12	4	-0.142644	5.375	1.619	8.2869997
56	12	7	0.077936999	5.9780002	2.5220001	8.5190001
57	12	7	0.077936999	6.052	0.74599999	8.3879995
58	12	4	-0.142644	4.2519999	1.443	9.3260002
59	12	7	0.077936999	4.7150002	1.3200001	10.329
60	12	7	0.077936999	3.707	0.49900001	9.1059999
61	12	4	-0.142644	3.2309999	2.5929999	9.3879995
62	12	7	0.077936999	2.4630001	2.3080001	10.136
63	12	7	0.077936999	2.707	2.6960001	8.415
64	12	4	-0.142644	3.8659999	3.9360001	9.79
65	12	7	0.077936999	4.4749999	3.813	10.712
66	12	7	0.077936999	4.546	4.2659998	8.9759998
67	12	4	-0.142644	2.819	5.0440001	9.9960003
68	12	7	0.077936999	2.0650001	5.0089998	9.1800003
69	12	7	0.077936999	3.3469999	6.0180001	9.927
70	12	4	-0.142644	2.1270001	4.9520001	11.367
71	12	7	0.077936999	1.684	3.9419999	11.49
72	12	7	0.077936999	2.872	5.0739999	12.18
73	12	4	-0.142644	0.98299998	5.9699998	11.53
74	12	7	0.077936999	0.222	5.7820001	10.742
75	12	7	0.077936999	0.486	5.789	12.507
76	12	4	-0.142644	1.4069999	7.4489999	11.456
77	12	7	0.077936999	0.48199999	8.0559998	11.54
78	12	7	0.077936999	1.851	7.6750002	10.464
79	12	4	-0.142644	2.3829999	7.848	12.576
80	12	7	0.077936999	1.972	7.5560002	13.567
81	12	7	0.077936999	3.3369999	7.3000002	12.431
82	12	4	-0.143976	2.7119999	9.3500004	12.567
83	12	7	0.077936999	3.6340001	9.4940004	13.167
84	12	7	0.077936999	2.9330001	9.6829996	11.529
85	12	4	-0.14282	1.584	10.207	13.167
86	12	7	0.079636998	0.65899998	10.067	12.57
87	12	7	0.079636998	1.365	9.875	14.206
88	12	4	-0.141883	1.9170001	11.707	13.161
89	12	7	0.083355002	2.283	12.013	12.156
90	12	7	0.083355002	0.97899997	12.271	13.361
91	12	4	0.11042	2.95	12.09	14.227
92	12	6	0.075491004	2.6199999	11.74	15.232
93	12	6	0.075491004	3.925	11.612	14
94	12	8	-0.50426	3.1400001	13.479	14.238
95	5	1	0.77940398	2.3269999	13.887	14.736
96	5	2	-0.64189798	1.198	13.891	14.179
97	5	3	-0.473903	2.5009999	14.429	16.049999
98	5	4	0.020987	1.402	15.016	16.815001
99	5	4	-0.147792	1.073	16.42	16.289
100	5	4	-0.1443	-0.15800001	17.035	16.973
101	5	4	-0.143889	0.112	17.434999	18.431999
102	5	4	-0.143889	-1.095	18.164	19.034
103	5	4	-0.1443	-0.82499999	18.563999	20.492001
104	5	4	-0.147792	-2.056	19.179001	21.176001
105	5	4	0.020987	-2.385	20.583	20.65
106	5	3	-0.473903	-3.484	21.169001	21.416
107	5	1	0.77940398	-3.3099999	21.712	22.729
108	5	2	-0.64189798	-2.181	21.708	23.287001
109	5	5	0.31819201	3.4400001	14.345	16.5
110	5	6	0.045164999	1.709	15.082	17.879999
111	5	6	0.045164999	0.50999999	14.355	16.754999
112	5	7	0.079628997	1.954	17.084999	16.422001
113	5	7	0.079628997	0.86299998	16.358	15.2
114	5	7	0.078667998	-0.44800001	17.943001	16.4
115	5	7	0.078667998	-1.01	16.322001	16.927
116	5	7	0.077936999	1.001	18.101999	18.474001
117	5	7	0.077936999	0.31999999	16.525999	19.035
118	5	7	0.077936999	-1.984	17.497	18.990999
119	5	7	0.077936999	-1.303	19.073	18.43
120	5	7	0.078667998	0.027000001	19.277	20.538
121	5	7	0.078667998	-0.53500003	17.656	21.065001
122	5	7	0.079628997	-1.846	19.240999	22.264999
123	5	7	0.079628997	-2.937	18.514	21.042999
124	5	6	0.045164999	-1.493	21.243999	20.709999
125	5	6	0.045164999	-2.6919999	20.517	19.584999
126	5	5	0.31819201	-4.4229999	21.254	20.966
127	13	8	-0.50426	-4.1230001	22.120001	23.226999
128	13	4	0.11042	-3.6129999	23.052	24.143
129	13	6	0.075491004	-4.303	23.098	25.011999
130	13	6	0.075491004	-2.6159999	22.737	24.528
131	13	4	-0.141883	-3.53	24.444	23.511999
132	13	7	0.083355002	-4.5300002	24.728001	23.117001
133	13	7	0.083355002	-3.2520001	25.173	24.305
134	13	4	-0.14282	-2.4879999	24.503	22.386
135	13	7	0.079636998	-1.507	24.171	22.787001
136	13	7	0.079636998	-2.79	23.815001	21.566
137	13	4	-0.143976	-2.3670001	25.929001	21.827999
138	13	7	0.077936999	-3.3729999	26.271	21.500999
139	13	7	0.077936999	-2.02	26.622	22.625999
140	13	4	-0.142644	-1.4220001	26.017	20.618
141	13	7	0.077936999	-1.7	25.243999	19.868
142	13	7	0.077936999	-1.577	27.009001	20.146
143	13	4	-0.142644	0.057999998	25.861	21.01
144	13	7	0.077936999	0.214	24.843	21.427
145	13	7	0.077936999	0.32499999	26.594	21.802
146	13	4	-0.142644	1.0039999	26.02	19.809
147	13	7	0.077936999	1.977	25.563999	20.089001
148	13	7	0.077936999	0.60600001	25.458	18.934999
149	13	4	-0.142644	1.239	27.493	19.434999
150	13	7	0.077936999	1.733	28.024	20.275999
151	13	7	0.077936999	0.26300001	27.993999	19.268999
152	13	4	-0.142644	2.0580001	27.66	18.142
153	13	7	0.077936999	2.1210001	28.743	17.899
154	13	7	0.077936999	1.508	27.174999	17.306
155	13	4	-0.142644	3.484	27.08	18.190001
156	13	7	0.077936999	3.9300001	27.226	17.184999
157	13	7	0.077936999	3.448	25.983999	18.368
158	13	4	-0.142644	4.3699999	27.757999	19.25
159	13	7	0.077936999	4.329	28.863001	19.136
160	13	7	0.077936999	3.977	27.504999	20.257
161	13	4	-0.142644	5.8299999	27.278999	19.190001
162	13	7	0.077936999	5.862	26.174	19.063999
163	13	7	0.077936999	6.3010001	27.521999	20.166
164	13	4	-0.142644	6.6300001	27.966	18.069
165	13	7	0.077936999	6.1100001	27.819	17.1
166	13	7	0.077936999	6.6700001	29.061001	18.246
167	13	4	-0.142644	8.052	27.396	17.912001
168	13	7	0.077936999	7.9780002	26.313	17.672001
169	13	7	0.077936999	8.5340004	27.886999	17.038
170	13	4	-0.142644	8.9650002	27.563999	19.139999
171	13	7	0.077936999	9.9280005	27.069	18.899
172	13	7	0.077936999	8.5389996	27.030001	20.014999
173	13	4	-0.142644	9.224	29.038	19.496
174	13	7	0.077936999	9.5830002	29.591999	18.601
175	13	7	0.077936999	8.2690001	29.500999	19.820999
176	13	4	-0.143976	10.228	29.201	20.65
177	13	7	0.077936999	10.115	30.231001	21.048
178	13	7	0.077936999	9.9779997	28.495001	21.471001
179	13	4	-0.14282	11.685	28.993999	20.200001
180	13	7	0.079636998	11.804	27.965	19.802
181	13	7	0.079636998	11.935	29.702	19.379999
182	13	4	-0.141883	12.686	29.160999	21.355
183	13	7	0.083355002	12.355	28.569	22.236
184	13	7	0.083355002	13.666	28.752001	21.025
185	13	4	0.11042	12.884	30.627001	21.761
186	13	6	0.075491004	13.162	31.242001	20.874001
187	13	6	0.075491004	11.942	31.035999	22.18
188	13	8	-0.50426	13.875	30.725	22.747
189	6	1	0.77940398	14.788	30.632	22.261999
190	6	2	-0.64189798	15.135	29.51	21.806
191	6	3	-0.473903	15.63	31.780001	22.112
192	6	4	0.020987	16.926001	31.726999	21.437
193	6	4	-0.147792	17.979	31.084999	22.35
194	6	4	-0.1443	19.330999	30.886999	21.646999
195	6	4	-0.143889	20.070999	32.210999	21.402
196	6	4	-0.143889	21.469	31.959999	20.823
197	6	4	-0.1443	22.209	33.284	20.579
198	6	4	-0.147792	23.561001	33.087002	19.875
199	6	4	0.020987	24.614	32.444	20.788
200	6	3	-0.473903	25.91	32.391998	20.113001
201	6	1	0.77940398	26.752001	33.539001	19.962999
202	6	2	-0.64189798	26.405001	34.660999	20.42
203	6	5	0.31819201	15.273	32.702999	22.447001
204	6	6	0.045164999	17.236	32.764	21.186001
205	6	6	0.045164999	16.83	31.158001	20.487
206	6	7	0.079628997	18.113001	31.705	23.263
207	6	7	0.079628997	17.615	30.087	22.676001
208	6	7	0.078667998	19.961	30.238001	22.294001
209	6	7	0.078667998	19.18	30.354	20.681999
210	6	7	0.077936999	20.167	32.764999	22.362
211	6	7	0.077936999	19.493	32.834999	20.688
212	6	7	0.077936999	21.372999	31.407	19.863001
213	6	7	0.077936999	22.047001	31.336	21.537001
214	6	7	0.078667998	22.360001	33.817001	21.542999
215	6	7	0.078667998	21.579	33.932999	19.931
216	6	7	0.079628997	23.924999	34.084999	19.549
217	6	7	0.079628997	23.427	32.466	18.962
218	6	6	0.045164999	24.709999	33.013	21.738001
219	6	6	0.045164999	24.304001	31.408001	21.039
220	6	5	0.31819201	26.267	31.469	19.778
221	14	8	-0.50426	27.664	33.445999	19.478001
222	14	4	0.11042	28.490999	34.469002	19.966999
223	14	6	0.075491004	29.202999	34.754002	19.164
224	14	6	0.075491004	27.9	35.379002	20.223
225	14	4	-0.141883	29.290001	33.987999	21.181
226	14	7	0.083355002	29.854	33.069	20.908001
227	14	7	0.083355002	30.025999	34.777	21.451
228	14	4	-0.14282	28.386999	33.706001	22.389
229	14	7	0.079636998	27.797001	34.618999	22.618
230	14	7	0.079636998	27.684	32.880001	22.141001
231	14	4	-0.143976	29.222	33.306	23.615
232	14	7	0.077936999	29.861	32.437	23.343
233	14	7	0.077936999	29.898001	34.140999	23.903999
234	14	4	-0.142644	28.356001	32.897999	24.818001
235	14	7	0.077936999	27.603001	32.145	24.500999
236	14	7	0.077936999	29.024	32.41	25.558001
237	14	4	-0.142644	27.653999	34.098999	25.475
238	14	7	0.077936999	26.945	34.544998	24.746
239	14	7	0.077936999	28.396999	34.881001	25.743
240	14	4	-0.142644	26.846001	33.698002	26.721001
241	14	7	0.077936999	26.117001	34.512001	26.921
242	14	7	0.077936999	26.268999	32.77	26.516001
243	14	4	-0.142644	27.733	33.513	27.964001
244	14	7	0.077936999	28.226	34.473	28.225
245	14	7	0.077936999	28.542	32.787998	27.738001
246	14	4	-0.142644	26.958	32.962002	29.174999
247	14	7	0.077936999	27.677999	32.785999	30.004999
248	14	7	0.077936999	26.531	31.972	28.906
249	14	4	-0.142644	25.82	33.862	29.688999
250	14	7	0.077936999	25.326	33.32	30.521999
251	14	7	0.077936999	25.052999	34.001999	28.899
252	14	4	-0.142644	26.316999	35.229	30.191
253	14	7	0.077936999	27.155001	35.094002	30.91
254	14	7	0.077936999	26.704	35.806999	29.323999
255	14	4	-0.142644	25.198999	36.061001	30.839001
256	14	7	0.077936999	24.275	35.998001	30.224001
257	14	7	0.077936999	25.531	37.120998	30.844
258	14	4	-0.142644	24.906	35.627998	32.285999
259	14	7	0.077936999	24.674999	34.542999	32.307999
260	14	7	0.077936999	25.806999	35.773998	32.917999
261	14	4	-0.142644	23.698	36.361	32.897999
262	14	7	0.077936999	22.799	36.144001	32.282001
263	14	7	0.077936999	23.504999	35.939999	33.909
264	14	4	-0.142644	23.85	37.888	33.02
265	14	7	0.077936999	22.895	38.278	33.426998
266	14	7	0.077936999	23.983	38.344002	32.016998
267	14	4	-0.142644	25.007	38.303001	33.945999
268	14	7	0.077936999	24.916	37.789001	34.928001
269	14	7	0.077936999	25.966	37.984001	33.485001
270	14	4	-0.143976	25.082001	39.824001	34.154999
271	14	7	0.077936999	26.093	40.057999	34.548
272	14	7	0.077936999	24.972	40.346001	33.179001
273	14	4	-0.14282	24.025999	40.337002	35.150002
274	14	7	0.079636998	23.013	40.105999	34.762001
275	14	7	0.079636998	24.136999	39.817001	36.125999
276	14	4	-0.141883	24.106001	41.858002	35.360001
277	14	7	0.083355002	24.148001	42.377998	34.376999
278	14	7	0.083355002	23.174999	42.186001	35.872002
279	14	4	0.11042	25.306	42.276001	36.219002
280	14	6	0.075491004	25.306	41.720001	37.183998
281	14	6	0.075491004	26.252001	42.042999	35.688999
282	14	8	-0.50426	25.271	43.657001	36.456001
283	7	1	0.77940398	24.561001	43.814999	37.195
284	7	2	-0.64189798	23.34	43.675999	36.918999
285	7	3	-0.473903	24.98	44.178001	38.514999
286	7	4	0.020987	24.038	44.410999	39.608002
287	7	4	-0.147792	23.367001	45.783001	39.452999
288	7	4	-0.1443	22.273001	46.029999	40.504002
289	7	4	-0.143889	22.844	46.251999	41.912998
290	7	4	-0.143889	21.733	46.626999	42.902
291	7	4	-0.1443	22.304001	46.848999	44.311001
292	7	4	-0.147792	21.209999	47.096001	45.362
293	7	4	0.020987	20.539	48.467999	45.207001
294	7	3	-0.473903	19.597	48.701	46.299999
295	7	1	0.77940398	20.016001	49.063999	47.619999
296	7	2	-0.64189798	21.238001	49.202999	47.896
297	7	5	0.31819201	26.004	44.216	38.716
298	7	6	0.045164999	24.594	44.375999	40.568001
299	7	6	0.045164999	23.275	43.602001	39.624001
300	7	7	0.079628997	24.136	46.584	39.509998
301	7	7	0.079628997	22.896	45.844002	38.449001
302	7	7	0.078667998	21.705999	46.937	40.199001
303	7	7	0.078667998	21.561001	45.174999	40.514
304	7	7	0.077936999	23.598	47.07	41.882
305	7	7	0.077936999	23.341	45.323002	42.264999
306	7	7	0.077936999	20.98	45.808998	42.932999
307	7	7	0.077936999	21.237	47.555	42.549999
308	7	7	0.078667998	23.016001	47.703999	44.300999
309	7	7	0.078667998	22.871	45.942001	44.615002
310	7	7	0.079628997	21.681	47.035	46.366001
311	7	7	0.079628997	20.441	46.294998	45.305
312	7	6	0.045164999	21.302	49.277	45.191002
313	7	6	0.045164999	19.983	48.501999	44.247002
314	7	5	0.31819201	18.573	48.661999	46.098999
315	15	8	-0.50426	19.306	49.221001	48.359001
316	15	4	0.11042	19.881001	50.089001	49.299
317	15	6	0.075491004	19.441	49.865002	50.292999
318	15	6	0.075491004	20.981001	49.925999	49.379002
319	15	4	-0.141883	19.579	51.548	48.948002
320	15	7	0.083355002	18.479	51.681999	48.853001
321	15	7	0.083355002	19.933001	52.191002	49.784
322	15	4	-0.14282	20.271999	51.983002	47.648998
323	15	7	0.079636998	21.363001	51.798	47.745998
324	15	7	0.079636998	19.881001	51.377998	46.801998
325	15	4	-0.143976	20.02	53.472	47.366001
326	15	7	0.077936999	18.922001	53.650002	47.348999
327	15	7	0.077936999	20.447001	54.091999	48.183998
328	15	4	-0.142644	20.594999	53.926998	46.014999
329	15	7	0.077936999	20.257999	53.235001	45.212002
330	15	7	0.077936999	20.169001	54.926998	45.792999
331	15	4	-0.142644	22.131001	54.013	46.025002
332	15	7	0.077936999	22.548	52.997002	46.189999
333	15	7	0.077936999	22.475	54.658001	46.862
334	15	4	-0.142644	22.698999	54.535999	44.695
335	15	7	0.077936999	23.77	54.248001	44.653999
336	15	7	0.077936999	22.181999	54.043999	43.841999
337	15	4	-0.142644	22.594999	56.067001	44.571999
338	15	7	0.077936999	23.198999	56.554001	45.366001
339	15	7	0.077936999	21.542999	56.381001	44.730999
340	15	4	-0.142644	23.016001	56.584999	43.183998
341	15	7	0.077936999	22.841999	57.682999	43.148998
342	15	7	0.077936999	22.351999	56.131001	42.417
343	15	4	-0.142644	24.479	56.301998	42.796001
344	15	7	0.077936999	24.621	56.683998	41.764
345	15	7	0.077936999	24.663	55.208	42.759998
346	15	4	-0.142644	25.49	56.977001	43.737999
347	15	7	0.077936999	25.247	58.056	43.854
348	15	7	0.077936999	25.415001	56.502998	44.740002
349	15	4	-0.142644	26.941999	56.814999	43.257999
350	15	7	0.077936999	27.113001	55.771	42.916
351	15	7	0.077936999	27.604	56.999001	44.130001
352	15	4	-0.142644	27.306999	57.807999	42.140999
353	15	7	0.077936999	26.584999	57.707001	41.305
354	15	7	0.077936999	27.218	58.849998	42.514
355	15	4	-0.142644	28.711	57.564999	41.558998
356	15	7	0.077936999	28.75	56.537998	41.136002
357	15	7	0.077936999	28.868999	58.268002	40.710999
358	15	4	-0.142644	29.872999	57.727001	42.556999
359	15	7	0.077936999	30.806	57.476002	42.013
360	15	7	0.077936999	29.775999	56.993	43.384998
361	15	4	-0.142644	29.979	59.153	43.125
362	15	7	0.077936999	30.003	59.895	42.298
363	15	7	0.077936999	29.08	59.361	43.741001
364	15	4	-0.143976	31.208	59.338001	44.030998
365	15	7	0.077936999	31.041	60.252998	44.637001
366	15	7	0.077936999	31.292	58.480999	44.734001
367	15	4	-0.14282	32.514	59.497002	43.231998
368	15	7	0.079636998	32.686001	58.584999	42.625
369	15	7	0.079636998	32.43	60.355	42.530998
370	15	4	-0.141883	33.738998	59.687	44.140999
371	15	7	0.083355002	33.743999	58.915001	44.941002
372	15	7	0.083355002	34.653	59.535999	43.525002
373	15	4	0.11042	33.801998	61.084999	44.769001
374	15	6	0.075491004	33.741001	61.868999	43.979
375	15	6	0.075491004	32.948002	61.229	45.460999
376	15	8	-0.50426	34.986	61.23	45.505001
377	8	1	0.77940398	35.744999	61.396	44.817001
378	8	2	-0.64189798	36.134998	60.446999	44.084999
379	8	3	-0.473903	36.330002	62.698002	44.707001
380	8	4	0.020987	37.398998	63.007999	43.759998
381	8	4	-0.147792	38.738998	62.459999	44.268002
382	8	4	-0.1443	39.877998	62.645	43.252998
383	8	4	-0.143889	40.312	64.111	43.110001
384	8	4	-0.143889	41.535	64.235001	42.192001
385	8	4	-0.1443	41.969002	65.702003	42.049
386	8	4	-0.147792	43.106998	65.887001	41.034
387	8	4	0.020987	44.448002	65.338997	41.541
388	8	3	-0.473903	45.516998	65.649002	40.594002
389	8	1	0.77940398	46.101002	66.950996	40.484001
390	8	2	-0.64189798	45.712002	67.899002	41.216
391	8	5	0.31819201	35.93	63.470001	45.286999
392	8	6	0.045164999	37.466	64.111	43.652
393	8	6	0.045164999	37.152	62.580002	42.764
394	8	7	0.079628997	39.004002	62.951	45.23
395	8	7	0.079628997	38.632999	61.372002	44.466999
396	8	7	0.078667998	40.748001	62.046001	43.602001
397	8	7	0.078667998	39.569	62.243	42.263
398	8	7	0.077936999	40.563999	64.523003	44.112
399	8	7	0.077936999	39.479	64.707001	42.68
400	8	7	0.077936999	41.283001	63.824001	41.188999
401	8	7	0.077936999	42.368	63.639999	42.622002
402	8	7	0.078667998	42.278	66.103996	43.039001
403	8	7	0.078667998	41.098999	66.301003	41.699001
404	8	7	0.079628997	43.213001	66.974998	40.834
405	8	7	0.079628997	42.841999	65.396004	40.071999
406	8	6	0.045164999	44.695	65.766998	42.536999
407	8	6	0.045164999	44.380001	64.236	41.648998
408	8	5	0.31819201	45.917	64.876999	40.014
409	16	8	-0.50426	46.860001	67.116997	39.797001
410	16	4	0.11042	47.612999	68.198997	40.275002
411	16	6	0.075491004	48.041	68.737999	39.403
412	16	6	0.075491004	46.973	68.922997	40.830002
413	16	4	-0.141883	48.764	67.711998	41.16
414	16	7	0.083355002	49.375999	66.975998	40.592999
415	16	7	0.083355002	49.410999	68.582001	41.404999
416	16	4	-0.14282	48.258999	67.077003	42.463001
417	16	7	0.079636998	47.612	67.807999	42.991001
418	16	7	0.079636998	47.654999	66.174004	42.223
419	16	4	-0.143976	49.433998	66.672997	43.366001
420	16	7	0.077936999	50.109001	66.000999	42.792999
421	16	7	0.077936999	50.021	67.572998	43.651001
422	16	4	-0.142644	48.983002	65.924004	44.630001
423	16	7	0.077936999	48.301998	65.091003	44.351002
424	16	7	0.077936999	49.887001	65.474998	45.091
425	16	4	-0.142644	48.292999	66.848	45.650002
426	16	7	0.077936999	47.360001	67.247002	45.201
427	16	7	0.077936999	48.949001	67.713997	45.889999
428	16	4	-0.142644	47.908001	66.111	46.944
429	16	7	0.077936999	47.137001	66.723	47.458
430	16	7	0.077936999	47.451	65.127998	46.698002
431	16	4	-0.142644	49.103001	65.922997	47.894001
432	16	7	0.077936999	49.488998	66.913002	48.217999
433	16	7	0.077936999	49.93	65.417999	47.354
434	16	4	-0.142644	48.764	65.053001	49.118
435	16	7	0.077936999	49.691002	64.903	49.713001
436	16	7	0.077936999	48.442001	64.049004	48.764999
437	16	4	-0.142644	47.668999	65.620003	50.041
438	16	7	0.077936999	47.498001	64.871002	50.841999
439	16	7	0.077936999	46.712002	65.720001	49.487999
440	16	4	-0.142644	48.057999	66.968002	50.673
441	16	7	0.077936999	49.063	66.897003	51.144001
442	16	7	0.077936999	48.112	67.735001	49.870998
443	16	4	-0.142644	47.028	67.452003	51.707001
444	16	7	0.077936999	45.998001	67.299004	51.316002
445	16	7	0.077936999	47.179001	68.543999	51.841999
446	16	4	-0.142644	47.189999	66.757004	53.07
447	16	7	0.077936999	47.146	65.656998	52.931999
448	16	7	0.077936999	48.188999	66.985001	53.497002
449	16	4	-0.142644	46.081001	67.133003	54.07
450	16	7	0.077936999	45.098999	66.834999	53.641998
451	16	7	0.077936999	46.223	66.535004	54.995998
452	16	4	-0.142644	46.016998	68.625	54.448002
453	16	7	0.077936999	45.150002	68.75	55.129002
454	16	7	0.077936999	45.813	69.242996	53.549999
455	16	4	-0.142644	47.292999	69.119003	55.151001
456	16	7	0.077936999	47.541	68.456001	56.008999
457	16	7	0.077936999	48.138	69.071999	54.431999
458	16	4	-0.143976	47.179001	70.575996	55.630001
459	16	7	0.077936999	48.207001	70.945999	55.821999
460	16	7	0.077936999	46.741001	71.205002	54.824001
461	16	4	-0.14282	46.348	70.711998	56.917999
462	16	7	0.079636998	45.318001	70.344002	56.730999
463	16	7	0.079636998	46.787998	70.084	57.723
464	16	4	-0.141883	46.240002	72.168999	57.396
465	16	7	0.083355002	45.944	72.828003	56.549999
466	16	7	0.083355002	45.432999	72.223	58.159
467	16	4	0.11042	47.539001	72.685997	58.026001
468	16	6	0.075491004	47.875	72.001999	58.84
469	16	6	0.075491004	48.341	72.727997	57.261002
470	16	8	-0.50426	47.349998	73.980003	58.528999
471	9	1	0.77940398	46.838001	73.879997	59.424999
472	9	2	-0.64189798	45.625	73.542	59.410999
473	9	3	-0.473903	47.521	74.116997	60.660999
474	9	4	0.020987	46.868	73.989998	61.962002
475	9	4	-0.147792	45.973	75.208	62.233002
476	9	4	-0.1443	45.161999	75.07	63.532001
477	9	4	-0.143889	46.034	75.189003	64.790001
478	9	4	-0.143889	45.172001	75.181	66.058998
479	9	4	-0.1443	46.043999	75.300003	67.318001
480	9	4	-0.147792	45.233002	75.162003	68.615997
481	9	4	0.020987	44.339001	76.378998	68.887001
482	9	3	-0.473903	43.686001	76.251999	70.188004
483	9	1	0.77940398	44.368	76.489998	71.424004
484	9	2	-0.64189798	45.582001	76.828003	71.439003
485	9	5	0.31819201	48.542999	74.330002	60.629002
486	9	6	0.045164999	47.652	73.925003	62.745998
487	9	6	0.045164999	46.272999	73.052002	61.993
488	9	7	0.079628997	46.595001	76.128998	62.27
489	9	7	0.079628997	45.255001	75.323997	61.393002
490	9	7	0.078667998	44.400002	75.879997	63.544998
491	9	7	0.078667998	44.620998	74.098999	63.535999
492	9	7	0.077936999	46.617001	76.136002	64.75
493	9	7	0.077936999	46.744999	74.335999	64.834
494	9	7	0.077936999	44.59	74.234001	66.098999
495	9	7	0.077936999	44.462002	76.032997	66.014999
496	9	7	0.078667998	46.585999	76.271004	67.313004
497	9	7	0.078667998	46.806	74.489998	67.304001
498	9	7	0.079628997	45.951	75.045998	69.456001
499	9	7	0.079628997	44.611	74.240997	68.580002
500	9	6	0.045164999	44.933998	77.318001	68.856003
501	9	6	0.045164999	43.555	76.445	68.102997
502	9	5	0.31819201	42.662998	76.040001	70.221001
503	17	8	-0.50426	43.855999	76.389999	72.32
504	17	4	0.11042	44.511002	77.204002	73.255997
505	17	6	0.075491004	44.382999	76.75	74.262001
506	17	6	0.075491004	45.605999	77.253998	73.053001
507	17	4	-0.141883	43.903	78.609001	73.273003
508	17	7	0.083355002	42.808998	78.531998	73.457001
509	17	7	0.083355002	44.355	79.177002	74.115997
510	17	4	-0.14282	44.160999	79.362999	71.961998
511	17	7	0.079636998	45.255001	79.388	71.771004
512	17	7	0.079636998	43.664001	78.827003	71.123001
513	17	4	-0.143976	43.612999	80.795998	72.038002
514	17	7	0.077936999	42.534	80.750999	72.304001
515	17	7	0.077936999	44.132999	81.360001	72.843002
516	17	4	-0.142644	43.741001	81.554001	70.707001
517	17	7	0.077936999	43.321999	80.938004	69.882004
518	17	7	0.077936999	43.120998	82.471001	70.786003
519	17	4	-0.142644	45.194	81.944	70.386002
520	17	7	0.077936999	45.793999	81.018997	70.250999
521	17	7	0.077936999	45.637001	82.513	71.233002
522	17	4	-0.142644	45.310001	82.764	69.089996
523	17	7	0.077936999	46.367001	82.706001	68.751999
524	17	7	0.077936999	44.674999	82.311996	68.296997
525	17	4	-0.142644	44.938999	84.242996	69.292999
526	17	7	0.077936999	45.643002	84.717003	70.009003
527	17	7	0.077936999	43.926998	84.313004	69.745003
528	17	4	-0.142644	44.901001	85.038002	67.974998
529	17	7	0.077936999	44.554001	86.070999	68.194
530	17	7	0.077936999	44.141998	84.580002	67.303001
531	17	4	-0.142644	46.240002	85.114998	67.218002
532	17	7	0.077936999	46.049999	85.667999	66.275002
533	17	7	0.077936999	46.577999	84.097	66.93
534	17	4	-0.142644	47.34	85.830002	68.019997
535	17	7	0.077936999	46.970001	86.807999	68.396004
536	17	7	0.077936999	47.602001	85.206001	68.901001
537	17	4	-0.142644	48.625999	86.035004	67.202003
538	17	7	0.077936999	48.866001	85.110001	66.634003
539	17	7	0.077936999	49.452999	86.214996	67.920998
540	17	4	-0.142644	48.529999	87.237999	66.247002
541	17	7	0.077936999	47.641998	87.120003	65.592003
542	17	7	0.077936999	48.377998	88.172997	66.824997
543	17	4	-0.142644	49.757	87.371002	65.325996
544	17	7	0.077936999	49.847	86.446999	64.713997
545	17	7	0.077936999	49.577999	88.209	64.617996
546	17	4	-0.142644	51.096001	87.610001	66.047997
547	17	7	0.077936999	51.884998	87.636002	65.268997
548	17	7	0.077936999	51.332001	86.757004	66.717003
549	17	4	-0.142644	51.119999	88.927002	66.843002
550	17	7	0.077936999	50.813	89.774002	66.192001
551	17	7	0.077936999	50.388	88.856003	67.675003
552	17	4	-0.143976	52.495998	89.217003	67.466003
553	17	7	0.077936999	52.348999	89.978996	68.260002
554	17	7	0.077936999	52.891998	88.299004	67.952003
555	17	4	-0.14282	53.508999	89.751999	66.440002
556	17	7	0.079636998	53.660999	88.994003	65.642998
557	17	7	0.079636998	53.112999	90.670998	65.956001
558	17	4	-0.141883	54.882	90.044998	67.067001
559	17	7	0.083355002	55.215	89.178001	67.679001
560	17	7	0.083355002	55.618	90.175003	66.242996
561	17	4	0.11042	54.883999	91.317001	67.922997
562	17	6	0.075491004	54.499001	92.181999	67.335999
563	17	6	0.075491004	54.224998	91.181	68.806
564	17	8	-0.50426	56.18	91.584999	68.386002
565	10	1	0.77940398	56.700001	92	67.591003
566	10	2	-0.64189798	57.032001	91.269997	66.620003
567	10	3	-0.473903	57.023998	93.393997	67.607002
568	10	4	0.020987	57.75	94.051003	66.522003
569	10	4	-0.147792	59.244999	93.711998	66.597
570	10	4	-0.1443	60.040001	94.272003	65.405998
571	10	4	-0.143889	60.186001	95.800003	65.457001
572	10	4	-0.143889	61.095001	96.302002	64.328003
573	10	4	-0.1443	61.242001	97.831001	64.378998
574	10	4	-0.147792	62.035999	98.389999	63.188999
575	10	4	0.020987	63.530998	98.052002	63.263
576	10	3	-0.473903	64.257004	98.708	62.178001
577	10	1	0.77940398	64.581001	100.102	62.194
578	10	2	-0.64189798	64.249001	100.833	63.165001
579	10	5	0.31819201	56.671001	93.974998	68.401001
580	10	6	0.045164999	57.612999	95.148003	66.617996
581	10	6	0.045164999	57.325001	93.736	65.542999
582	10	7	0.079628997	59.668999	94.097	67.550003
583	10	7	0.079628997	59.367001	92.608002	66.598999
584	10	7	0.078667998	61.053001	93.814003	65.427002
585	10	7	0.078667998	59.553001	93.969002	64.453003
586	10	7	0.077936999	60.619999	96.098999	66.436996
587	10	7	0.077936999	59.187	96.274002	65.350998
588	10	7	0.077936999	60.661999	96.003998	63.348999
589	10	7	0.077936999	62.094002	95.828003	64.434998
590	10	7	0.078667998	61.728001	98.134003	65.332001
591	10	7	0.078667998	60.228001	98.289001	64.359001
592	10	7	0.079628997	61.915001	99.495003	63.186001