Title

576 atoms
575 bonds
1094 angles
2049 dihedrals
102 impropers

11 atom types
12 bond types
9 angle types
29 dihedral types
2 improper types
-18.33600044 81.66399956 xlo xhi
-14.73099995 85.26900005 ylo yhi
-98.2480011 1.751998901 zlo zhi
0.0 0.0 0.0 xy xz yz

Masses

1	12.01078
2	15.99943
3	14.00672
4	12.01078
5	1.007947
6	1.007947
7	1.007947
8	15.99943
9	15.99943
10	1.007947
11	12.01078


Pair Coeffs

1	0.086879315	3.4806469
2	0.2102061	3.0398122
3	0.16769152	3.206876
4	0.10884061	3.3795318
5	0.014090815	1.1034277
6	0.016409246	2.5832257
7	0.015779483	2.6445434
8	0.16846514	3.0251065
9	0.20947353	2.99716
10	1.2326e-05	0.53453923
11	0.21	3.3996695

Bond Coeffs

1 harmonic	582.698766451	1.225198386222
2 harmonic	492.76746816345	1.381897776683
3 harmonic	301.15400723785	1.345741232799
4 harmonic	352.0565580496	1.450098586273
5 harmonic	505.144496193	1.019481865027
6 harmonic	264.62148576755	1.52190126495
7 harmonic	370.04670688625	1.093899492634
8 harmonic	366.7408841747	1.425895053732
9 harmonic	329.96998057905	1.427343958716
10 harmonic	543.5267831885	0.9716763312559
11 harmonic	366.34047229585	1.464762957261
12 harmonic	602.81384337	1.196112346392


Angle Coeffs

1 harmonic	55.42182150775	117.3465570514
2 harmonic	63.44422595415	115.5071327674
3 harmonic	65.09061609600001	110.3538806181
4 harmonic	57.8982893754	126.8062420451
5 harmonic	201.41175231035	127.4691416191
6 harmonic	53.20531626545	116.5475862634
7 harmonic	48.776492647595	115.6030999533
8 harmonic	55.07882548015	112.8714009681
9 harmonic	33.56981613361	180


Dihedral Coeffs

1 fourier 1	-0.1488678166443	4	180
2 fourier 1	-0.1230328948768	3	180
3 fourier 1	0.2939295466901	2	0
4 fourier 1	-0.3024127022865	1	0
5 fourier 1	0.182238503271	2	0
6 fourier 1	0.02972342374561	3	0
7 fourier 1	0.1918272375143	3	0
8 fourier 1	0.9202179876409	1	180
9 fourier 1	0.0473758381877	3	0
10 fourier 1	1.809047390003	2	180
11 fourier 1	-0.04816277792592	1	0
12 fourier 1	0.4860993122944	2	180
13 fourier 1	0.8916986138746	1	0
14 fourier 1	1.163809172478	2	180
15 fourier 1	0.1679186987369	1	180
16 fourier 1	2.779853741805	2	180
17 fourier 1	0.1155372516788	3	0
18 fourier 1	0.09223874044423	3	0
19 fourier 1	0.3159935921949	2	180
20 fourier 1	0.3247796806857	1	180
21 fourier 1	0.1040663847541	3	0
22 fourier 1	0.1911926717192	3	0
23 fourier 1	0.1115525666802	3	0
24 fourier 1	0.3432490222662	1	0
25 fourier 1	0.3445382149273	3	0
26 fourier 1	0.1364556373303	1	0
27 fourier 1	0.3026390167484	3	0
28 fourier 1	-1.382973039546	1	0
29 fourier 1	0	1	0


Improper Coeffs

1 0.3333333333333333	-1	2
2 3.5	-1	2


Atoms

1	4	1	0.781138	-6.2540002	-0.243	-0.061999999
2	4	2	-0.63376302	-6.0450001	-1.472	-0.23999999
3	4	3	-0.47187001	-5.1869998	0.70700002	-0.16
4	4	4	0.022050999	-3.8099999	0.32100001	-0.46200001
5	4	4	-0.146938	-3.141	-0.28999999	0.77700001
6	4	4	-0.14347599	-1.732	-0.82999998	0.484
7	4	4	-0.14307401	-0.70700002	0.28799999	0.243
8	4	4	-0.14307401	0.70700002	-0.28799999	0.088
9	4	4	-0.14347599	1.732	0.82999998	-0.153
10	4	4	-0.146938	3.141	0.28999999	-0.44600001
11	4	4	0.022050999	3.8099999	-0.32100001	0.79299998
12	4	3	-0.47187001	5.1869998	-0.70700002	0.49000001
13	4	1	0.781138	6.2540002	0.243	0.39300001
14	4	2	-0.63376302	6.0450001	1.472	0.57099998
15	4	5	0.32012299	-5.4180002	1.722	-0.071000002
16	4	6	0.048168998	-3.25	1.227	-0.77700001
17	4	6	0.048168998	-3.8	-0.40000001	-1.308
18	4	7	0.081822	-3.095	0.46799999	1.589
19	4	7	0.081822	-3.7609999	-1.135	1.1440001
20	4	7	0.080798	-1.408	-1.431	1.3609999
21	4	7	0.080798	-1.765	-1.51	-0.396
22	4	7	0.080054998	-0.722	0.995	1.101
23	4	7	0.080054998	-0.97100002	0.84399998	-0.68099999
24	4	7	0.080054998	0.722	-0.995	-0.76999998
25	4	7	0.080054998	0.97100002	-0.84399998	1.012
26	4	7	0.080798	1.765	1.51	0.727
27	4	7	0.080798	1.408	1.432	-1.031
28	4	7	0.081822	3.7609999	1.135	-0.81300002
29	4	7	0.081822	3.095	-0.46799999	-1.2589999
30	4	6	0.048168998	3.8	0.40000001	1.6390001
31	4	6	0.048168998	3.25	-1.227	1.108
32	4	5	0.32012299	5.4180002	-1.722	0.40099999
33	12	8	-0.50255001	7.2140002	-0.085000001	0.17900001
34	12	4	0.111481	8.033	0.426	1.194
35	12	4	-0.141012	9.4849997	0.0020000001	0.963
36	12	4	-0.14198899	10.054	0.60799998	-0.33000001
37	12	4	-0.143158	11.555	0.32800001	-0.50400001
38	12	4	-0.141829	11.849	-1.1440001	-0.82999998
39	12	4	-0.141829	13.339	-1.355	-1.124
40	12	4	-0.143158	13.633	-2.8269999	-1.449
41	12	4	-0.14198899	15.134	-3.109	-1.6210001
42	12	4	-0.141012	15.703	-2.5139999	-2.9189999
43	12	4	0.111481	17.172001	-2.9000001	-3.122
44	12	8	-0.50255001	17.308001	-4.2849998	-3.2950001
45	12	6	0.078331999	7.9629998	1.5369999	1.22
46	12	6	0.078331999	7.697	0.028999999	2.178
47	12	7	0.085603997	10.094	0.34099999	1.83
48	12	7	0.085603997	9.5279999	-1.1059999	0.91900003
49	12	7	0.081776999	9.4960003	0.22	-1.211
50	12	7	0.081776999	9.9130001	1.711	-0.30199999
51	12	7	0.080054998	11.926	0.96100003	-1.34
52	12	7	0.080054998	12.104	0.63	0.41499999
53	12	7	0.080054998	11.253	-1.4529999	-1.717
54	12	7	0.080054998	11.559	-1.7819999	0.033
55	12	7	0.080054998	13.628	-0.71700001	-1.9859999
56	12	7	0.080054998	13.935	-1.046	-0.237
57	12	7	0.080054998	13.26	-3.46	-0.61400002
58	12	7	0.080054998	13.085	-3.128	-2.3699999
59	12	7	0.081776999	15.694	-2.7130001	-0.745
60	12	7	0.081776999	15.273	-4.2119999	-1.638
61	12	7	0.085603997	15.108	-2.865	-3.7909999
62	12	7	0.085603997	15.642	-1.406	-2.882
63	12	6	0.078331999	17.58	-2.362	-4.0079999
64	12	6	0.078331999	17.767	-2.586	-2.2379999
65	5	1	0.781138	16.976999	-4.4980001	-4.2540002
66	5	2	-0.63376302	15.884	-4.0149999	-4.6539998
67	5	3	-0.47187001	17.77	-5.329	-5.1090002
68	5	4	0.022050999	17.371	-5.6690001	-6.473
69	5	4	-0.146938	16.275999	-6.7449999	-6.4590001
70	5	4	-0.14347599	15.727	-7.052	-7.8610001
71	5	4	-0.14307401	16.733	-7.8130002	-8.7379999
72	5	4	-0.14307401	16.101	-8.2150002	-10.076
73	5	4	-0.14347599	17.107	-8.9770002	-10.952
74	5	4	-0.146938	16.558001	-9.283	-12.355
75	5	4	0.022050999	15.463	-10.359	-12.34
76	5	3	-0.47187001	15.064	-10.699	-13.704
77	5	1	0.781138	15.857	-11.53	-14.559
78	5	2	-0.63376302	16.950001	-12.013	-14.16
79	5	5	0.32012299	18.700001	-5.6529999	-4.7600002
80	5	6	0.048168998	18.26	-6.053	-7.0159998
81	5	6	0.048168998	17.016001	-4.756	-6.9980001
82	5	7	0.081822	16.671	-7.6750002	-5.994
83	5	7	0.081822	15.43	-6.3920002	-5.8309999
84	5	7	0.080798	14.813	-7.6739998	-7.7410002
85	5	7	0.080798	15.427	-6.1059999	-8.3629999
86	5	7	0.080054998	17.072001	-8.7279997	-8.2030001
87	5	7	0.080054998	17.615999	-7.1700001	-8.9370003
88	5	7	0.080054998	15.762	-7.3010001	-10.61
89	5	7	0.080054998	15.218	-8.8590002	-9.8760004
90	5	7	0.080798	17.407	-9.9230003	-10.451
91	5	7	0.080798	18.021	-8.3549995	-11.072
92	5	7	0.081822	17.403999	-9.6359997	-12.983
93	5	7	0.081822	16.163	-8.3540001	-12.82
94	5	6	0.048168998	15.818	-11.273	-11.815
95	5	6	0.048168998	14.574	-9.9750004	-11.797
96	5	5	0.32012299	14.134	-10.375	-14.053
97	13	8	-0.50255001	15.526	-11.744	-15.518
98	13	4	0.111481	15.532	-13.14	-15.629
99	13	4	-0.141012	15.063	-13.56	-17.023001
100	13	4	-0.14198899	16.035	-13.084	-18.115999
101	13	4	-0.143158	15.672	-13.627	-19.507
102	13	4	-0.141829	14.4	-12.984	-20.08
103	13	4	-0.141829	14.147	-13.454	-21.518
104	13	4	-0.143158	12.875	-12.811	-22.091
105	13	4	-0.14198899	12.51	-13.355	-23.481001
106	13	4	-0.141012	13.473	-12.871	-24.577
107	13	4	0.111481	13.027	-13.336	-25.968
108	13	8	-0.50255001	11.797	-12.761	-26.319
109	13	6	0.078331999	16.556	-13.534	-15.44
110	13	6	0.078331999	14.841	-13.575	-14.873
111	13	7	0.085603997	14.989	-14.669	-17.052
112	13	7	0.085603997	14.051	-13.138	-17.198999
113	13	7	0.081776999	16.063	-11.972	-18.143
114	13	7	0.081776999	17.058001	-13.44	-17.865999
115	13	7	0.080054998	16.523001	-13.41	-20.191
116	13	7	0.080054998	15.551	-14.731	-19.461
117	13	7	0.080054998	14.508	-11.877	-20.070999
118	13	7	0.080054998	13.527	-13.261	-19.452999
119	13	7	0.080054998	15.021	-13.177	-22.145
120	13	7	0.080054998	14.039	-14.561	-21.527
121	13	7	0.080054998	12.025	-13.026	-21.406
122	13	7	0.080054998	12.997	-11.707	-22.139
123	13	7	0.081776999	12.491	-14.467	-23.458
124	13	7	0.081776999	11.483	-13.006	-23.724001
125	13	7	0.085603997	13.537	-11.761	-24.565001
126	13	7	0.085603997	14.489	-13.278	-24.389999
127	13	6	0.078331999	13.804	-13.065	-26.719
128	13	6	0.078331999	12.925	-14.442	-25.979
129	6	1	0.781138	11.99	-11.771	-26.561001
130	6	2	-0.63376302	12.706	-11.075	-25.792999
131	6	3	-0.47187001	11.449	-11.218	-27.764999
132	6	4	0.022050999	11.682	-9.8339996	-28.174
133	6	4	-0.146938	10.806	-8.8780003	-27.353001
134	6	4	-0.14347599	11.101	-7.4000001	-27.650999
135	6	4	-0.14307401	10.608	-6.9660001	-29.040001
136	6	4	-0.14307401	10.8	-5.4580002	-29.243999
137	6	4	-0.14347599	10.307	-5.0240002	-30.632999
138	6	4	-0.146938	10.602	-3.546	-30.931
139	6	4	0.022050999	9.7259998	-2.5899999	-30.110001
140	6	3	-0.47187001	9.9589996	-1.206	-30.518999
141	6	1	0.781138	9.4180002	-0.653	-31.723
142	6	2	-0.63376302	8.7030001	-1.349	-32.491001
143	6	5	0.32012299	10.918	-11.85	-28.405001
144	6	6	0.048168998	11.428	-9.7360001	-29.250999
145	6	6	0.048168998	12.758	-9.5830002	-28.051001
146	6	7	0.081822	9.7329998	-9.0979996	-27.542999
147	6	7	0.081822	10.996	-9.0530005	-26.271999
148	6	7	0.080798	10.585	-6.7870002	-26.879999
149	6	7	0.080798	12.193	-7.2080002	-27.559
150	6	7	0.080054998	9.5290003	-7.2150002	-29.145
151	6	7	0.080054998	11.176	-7.5100002	-29.823999
152	6	7	0.080054998	11.879	-5.2090001	-29.139999
153	6	7	0.080054998	10.232	-4.914	-28.459999
154	6	7	0.080798	9.2159996	-5.2160001	-30.725
155	6	7	0.080798	10.823	-5.6370001	-31.403999
156	6	7	0.081822	10.413	-3.3710001	-32.012001
157	6	7	0.081822	11.676	-3.326	-30.742001
158	6	6	0.048168998	8.6499996	-2.8399999	-30.233
159	6	6	0.048168998	9.9809999	-2.688	-29.033001
160	6	5	0.32012299	10.491	-0.574	-29.879
161	14	8	-0.50255001	9.6110001	0.33700001	-31.965
162	14	4	0.111481	8.3620005	0.93599999	-32.174999
163	14	4	-0.141012	8.5410004	2.408	-32.549
164	14	4	-0.14198899	9.2729998	2.5680001	-33.890999
165	14	4	-0.143158	9.3249998	4.0289998	-34.366001
166	14	4	-0.141829	10.271	4.8940001	-33.52
167	14	4	-0.141829	10.395	6.3060002	-34.105
168	14	4	-0.143158	11.342	7.171	-33.257999
169	14	4	-0.14198899	11.392	8.632	-33.730999
170	14	4	-0.141012	12.134	8.7959995	-35.068001
171	14	4	0.111481	12.267	10.271	-35.464001
172	14	8	-0.50255001	13.065	10.968	-34.543999
173	14	6	0.078331999	7.8140001	0.40400001	-32.985001
174	14	6	0.078331999	7.7600002	0.87400001	-31.242001
175	14	7	0.085603997	7.5359998	2.8789999	-32.617001
176	14	7	0.085603997	9.1079998	2.914	-31.739
177	14	7	0.081776999	10.306	2.1630001	-33.813
178	14	7	0.081776999	8.7379999	1.976	-34.665001
179	14	7	0.080054998	9.6809998	4.033	-35.419998
180	14	7	0.080054998	8.302	4.4650002	-34.355
181	14	7	0.080054998	11.278	4.421	-33.490002
182	14	7	0.080054998	9.882	4.967	-32.481998
183	14	7	0.080054998	10.784	6.2319999	-35.141998
184	14	7	0.080054998	9.3889999	6.7789998	-34.133999
185	14	7	0.080054998	10.987	7.165	-32.203999
186	14	7	0.080054998	12.365	6.7350001	-33.271
187	14	7	0.081776999	10.36	9.0360003	-33.819
188	14	7	0.081776999	11.919	9.224	-32.951
189	14	7	0.085603997	13.147	8.3430004	-34.998001
190	14	7	0.085603997	11.576	8.2749996	-35.873001
191	14	6	0.078331999	12.707	10.345	-36.484001
192	14	6	0.078331999	11.262	10.742	-35.499001
193	7	1	0.781138	14.046	10.688	-34.73
194	7	2	-0.63376302	14.326	9.4659996	-34.862
195	7	3	-0.47187001	15.061	11.691	-34.841
196	7	4	0.022050999	16.462	11.373	-35.105999
197	7	4	-0.146938	17.139999	10.842	-33.835999
198	7	4	-0.14347599	18.582001	10.371	-34.084999
199	7	4	-0.14307401	19.549	11.536	-34.346001
200	7	4	-0.14307401	20.993999	11.036	-34.457001
201	7	4	-0.14347599	21.961	12.2	-34.717999
202	7	4	-0.146938	23.403	11.73	-34.967999
203	7	4	0.022050999	24.08	11.199	-33.696999
204	7	3	-0.47187001	25.482	10.88	-33.962002
205	7	1	0.781138	26.497	11.884	-34.073002
206	7	2	-0.63376302	26.216999	13.105	-33.941002
207	7	5	0.32012299	14.772	12.694	-34.791
208	7	6	0.048168998	16.976999	12.298	-35.442001
209	7	6	0.048168998	16.528	10.626	-35.926998
210	7	7	0.081822	17.128	11.627	-33.049
211	7	7	0.081822	16.559999	9.9759998	-33.451
212	7	7	0.080798	18.922001	9.8190002	-33.181999
213	7	7	0.080798	18.603001	9.6619997	-34.942001
214	7	7	0.080054998	19.478001	12.27	-33.513
215	7	7	0.080054998	19.271999	12.046	-35.292999
216	7	7	0.080054998	21.065001	10.302	-35.290001
217	7	7	0.080054998	21.271	10.526	-33.509998
218	7	7	0.080798	21.940001	12.91	-33.861
219	7	7	0.080798	21.621	12.753	-35.620998
220	7	7	0.081822	23.983	12.596	-35.352001
221	7	7	0.081822	23.415001	10.945	-35.755001
222	7	6	0.048168998	24.014999	11.945	-32.875999
223	7	6	0.048168998	23.565001	10.274	-33.362
224	7	5	0.32012299	25.771	9.8780003	-34.012001
225	15	8	-0.50255001	27.478001	11.604	-34.258999
226	15	4	0.111481	28.247999	12.193	-33.248001
227	15	4	-0.141012	29.725	11.843	-33.438999
228	15	4	-0.14198899	30.284	12.437	-34.742001
229	15	4	-0.143158	31.802	12.235	-34.880001
230	15	4	-0.141829	32.181999	10.772	-35.150002
231	15	4	-0.141829	33.687	10.635	-35.410999
232	15	4	-0.143158	34.068001	9.1709995	-35.681
233	15	4	-0.14198899	35.584999	8.9680004	-35.816002
234	15	4	-0.141012	36.145	9.5500002	-37.124001
235	15	4	0.111481	37.637001	9.2399998	-37.287998
236	15	8	-0.50255001	37.853001	7.8600001	-37.410999
237	15	6	0.078331999	28.115999	13.298	-33.261002
238	15	6	0.078331999	27.914	11.811	-32.257
239	15	7	0.085603997	30.297001	12.244	-32.574001
240	15	7	0.085603997	29.829	10.738	-33.444
241	15	7	0.081776999	29.766001	11.989	-35.618999
242	15	7	0.081776999	30.082001	13.53	-34.754002
243	15	7	0.080054998	32.153	12.86	-35.73
244	15	7	0.080054998	32.314999	12.597	-33.962002
245	15	7	0.080054998	31.622	10.4	-36.035999
246	15	7	0.080054998	31.912001	10.148	-34.271999
247	15	7	0.080054998	33.957001	11.259	-36.289001
248	15	7	0.080054998	34.248001	11.006	-34.523998
249	15	7	0.080054998	33.714001	8.5459995	-34.831001
250	15	7	0.080054998	33.556	8.809	-36.599998
251	15	7	0.081776999	36.105999	9.4230003	-34.945
252	15	7	0.081776999	35.785	7.875	-35.792999
253	15	7	0.085603997	35.588001	9.1379995	-37.993
254	15	7	0.085603997	36.022999	10.654	-37.125999
255	15	6	0.078331999	38.032001	9.7700005	-38.185001
256	15	6	0.078331999	38.196999	9.6160002	-36.404999
257	8	1	0.781138	37.553001	7.5970001	-38.368
258	8	2	-0.63376302	36.443001	8.0050001	-38.803001
259	8	3	-0.47187001	38.405998	6.783	-39.18
260	8	4	0.022050999	38.053001	6.3769999	-40.539001
261	8	4	-0.146938	37.02	5.243	-40.506001
262	8	4	-0.14347599	36.515999	4.8600001	-41.907001
263	8	4	-0.14307401	37.577999	4.1269999	-42.738998
264	8	4	-0.14307401	36.994999	3.6459999	-44.074001
265	8	4	-0.14347599	38.057999	2.9130001	-44.905998
266	8	4	-0.146938	37.554001	2.53	-46.306999
267	8	4	0.022050999	36.52	1.396	-46.275002
268	8	3	-0.47187001	36.167	0.99000001	-47.632999
269	8	1	0.781138	37.021	0.176	-48.445
270	8	2	-0.63376302	38.131001	-0.23199999	-48.009998
271	8	5	0.32012299	39.346001	6.5240002	-38.804001
272	8	6	0.048168998	38.973	6.0250001	-41.053001
273	8	6	0.048168998	37.659	7.2509999	-41.101002
274	8	7	0.081822	37.456001	4.3520002	-40.002998
275	8	7	0.081822	36.143002	5.5689998	-39.905998
276	8	7	0.080798	35.634998	4.1919999	-41.782001
277	8	7	0.080798	36.174	5.7709999	-42.445999
278	8	7	0.080054998	37.957001	3.2509999	-42.167999
279	8	7	0.080054998	38.429001	4.8109999	-42.945
280	8	7	0.080054998	36.617001	4.5219998	-44.645
281	8	7	0.080054998	36.145	2.9619999	-43.868
282	8	7	0.080798	38.400002	2.0020001	-44.367001
283	8	7	0.080798	38.938999	3.5810001	-45.030998
284	8	7	0.081822	38.43	2.204	-46.907001
285	8	7	0.081822	37.118	3.421	-46.810001
286	8	6	0.048168998	36.915001	0.52200001	-45.712002
287	8	6	0.048168998	35.601002	1.748	-45.761002
288	8	5	0.32012299	35.228001	1.249	-48.008999
289	16	8	-0.50255001	36.721001	-0.086999997	-49.402
290	16	4	0.111481	36.806	-1.484	-49.465
291	16	4	-0.141012	36.389	-1.975	-50.852001
292	16	4	-0.14198899	37.353001	-1.482	-51.943001
293	16	4	-0.143158	37.048	-2.0899999	-53.320999
294	16	4	-0.141829	35.754002	-1.538	-53.938
295	16	4	-0.141829	35.555	-2.069	-55.362999
296	16	4	-0.143158	34.261002	-1.517	-55.98
297	16	4	-0.14198899	33.952999	-2.1270001	-57.356998
298	16	4	-0.141012	34.909	-1.627	-58.452
299	16	4	0.111481	34.516998	-2.161	-59.834
300	16	8	-0.50255001	33.264	-1.668	-60.224998
301	16	6	0.078331999	37.846001	-1.814	-49.243999
302	16	6	0.078331999	36.125999	-1.932	-48.707001
303	16	7	0.085603997	36.375999	-3.0869999	-50.844002
304	16	7	0.085603997	35.358002	-1.6160001	-51.060001
305	16	7	0.081776999	37.320999	-0.37200001	-52.007999
306	16	7	0.081776999	38.389999	-1.772	-51.662998
307	16	7	0.080054998	37.897999	-1.849	-53.997002
308	16	7	0.080054998	36.987	-3.197	-53.238998
309	16	7	0.080054998	35.799999	-0.42699999	-53.964001
310	16	7	0.080054998	34.884998	-1.8430001	-53.317001
311	16	7	0.080054998	36.424	-1.765	-55.984001
312	16	7	0.080054998	35.507999	-3.1800001	-55.337002
313	16	7	0.080054998	33.410999	-1.757	-55.303001
314	16	7	0.080054998	34.321999	-0.41	-56.063
315	16	7	0.081776999	33.993999	-3.2360001	-57.296001
316	16	7	0.081776999	32.912998	-1.844	-57.629002
317	16	7	0.085603997	34.910999	-0.51499999	-58.476002
318	16	7	0.085603997	35.942001	-1.97	-58.233002
319	16	6	0.078331999	35.292	-1.872	-60.578999
320	16	6	0.078331999	34.474998	-3.2709999	-59.807999
321	9	1	0.781138	33.405998	-0.67699999	-60.498001
322	9	2	-0.63376302	34.067001	0.082999997	-59.741001
323	9	3	-0.47187001	32.859001	-0.19499999	-61.729
324	9	4	0.022050999	33.022999	1.1849999	-62.181
325	9	4	-0.146938	32.080002	2.1170001	-61.408001
326	9	4	-0.14347599	32.299	3.599	-61.750999
327	9	4	-0.14307401	31.809999	3.9590001	-63.162998
328	9	4	-0.14307401	31.922001	5.4679999	-63.415001
329	9	4	-0.14347599	31.433001	5.8270001	-64.825996
330	9	4	-0.146938	31.652	7.309	-65.168999
331	9	4	0.022050999	30.709	8.2410002	-64.396004
332	9	3	-0.47187001	30.872999	9.6219997	-64.848
333	9	1	0.781138	30.325001	10.104	-66.080002
334	9	2	-0.63376302	29.665001	9.3439999	-66.835999
335	9	5	0.32012299	32.375999	-0.87699997	-62.355999
336	9	6	0.048168998	32.785	1.233	-63.264999
337	9	6	0.048168998	34.081001	1.5	-62.048
338	9	7	0.081822	31.024	1.8329999	-61.609001
339	9	7	0.081822	32.257999	1.99	-60.319
340	9	7	0.080798	31.735001	4.2080002	-61.011002
341	9	7	0.080798	33.375999	3.855	-61.646999
342	9	7	0.080054998	30.747999	3.6470001	-63.278
343	9	7	0.080054998	32.422001	3.4219999	-63.917999
344	9	7	0.080054998	32.984001	5.7800002	-63.299999
345	9	7	0.080054998	31.309999	6.0040002	-62.659
346	9	7	0.080798	30.356001	5.572	-64.93
347	9	7	0.080798	31.996	5.2179999	-65.567001
348	9	7	0.081822	31.474001	7.4369998	-66.259003
349	9	7	0.081822	32.708	7.5939999	-64.968002
350	9	6	0.048168998	29.650999	7.927	-64.528999
351	9	6	0.048168998	30.947001	8.1940002	-63.313
352	9	5	0.32012299	31.356001	10.303	-64.221001
353	17	8	-0.50255001	30.468	11.094	-66.351997
354	17	4	0.111481	29.193001	11.615	-66.603996
355	17	4	-0.141012	29.297001	13.082	-67.025002
356	17	4	-0.14198899	30.045	13.238	-68.359001
357	17	4	-0.143158	30.025	14.683	-68.883003
358	17	4	-0.141829	30.907	15.627	-68.050003
359	17	4	-0.141829	30.962999	17.024	-68.68
360	17	4	-0.143158	31.844999	17.966999	-67.847
361	17	4	-0.14198899	31.823	19.413	-68.369003
362	17	4	-0.141012	32.581001	19.573999	-69.696999
363	17	4	0.111481	32.639999	21.040001	-70.140999
364	17	8	-0.50255001	33.380001	21.809999	-69.232002
365	17	6	0.078331999	28.690001	11.027	-67.404999
366	17	6	0.078331999	28.576	11.551	-65.68
367	17	7	0.085603997	28.268999	13.494	-67.125999
368	17	7	0.085603997	29.82	13.645	-66.223
369	17	7	0.081776999	31.097	12.894	-68.249001
370	17	7	0.081776999	29.558001	12.592	-69.121002
371	17	7	0.080054998	30.400999	14.672	-69.929001
372	17	7	0.080054998	28.98	15.062	-68.903999
373	17	7	0.080054998	31.937	15.212	-67.986
374	17	7	0.080054998	30.493999	15.713	-67.022003
375	17	7	0.080054998	31.375999	16.937	-69.708
376	17	7	0.080054998	29.933001	17.438999	-68.744003
377	17	7	0.080054998	31.469999	17.976	-66.800003
378	17	7	0.080054998	32.889999	17.589001	-67.827003
379	17	7	0.081776999	30.771999	19.754999	-68.488998
380	17	7	0.081776999	32.300999	20.058001	-67.599998
381	17	7	0.085603997	33.616001	19.18	-69.594002
382	17	7	0.085603997	32.068001	18.995001	-70.492996
383	17	6	0.078331999	33.095001	21.104	-71.154999
384	17	6	0.078331999	31.611	21.452	-70.209
385	10	1	0.781138	34.379002	21.579	-69.390999
386	10	2	-0.63376302	34.728001	20.371	-69.475998
387	10	3	-0.47187001	35.338001	22.632999	-69.517998
388	10	4	0.022050999	36.759998	22.385	-69.748001
389	10	4	-0.146938	37.442001	21.934999	-68.447998
390	10	4	-0.14347599	38.911999	21.537001	-68.656998
391	10	4	-0.14307401	39.818001	22.745001	-68.940002
392	10	4	-0.14307401	41.291	22.322001	-69.009003
393	10	4	-0.14347599	42.196999	23.530001	-69.292
394	10	4	-0.146938	43.666	23.132	-69.5
395	10	4	0.022050999	44.348	22.681999	-68.200996
396	10	3	-0.47187001	45.77	22.434	-68.431
397	10	1	0.781138	46.73	23.488001	-68.557999
398	10	2	-0.63376302	46.380001	24.695999	-68.472
399	10	5	0.32012299	34.993999	23.618999	-69.508003
400	10	6	0.048168998	37.23	23.325001	-70.106003
401	10	6	0.048168998	36.882999	21.615999	-70.542
402	10	7	0.081822	37.370998	22.743999	-67.689003
403	10	7	0.081822	36.903	21.051001	-68.044998
404	10	7	0.080798	39.264	21.034	-67.728996
405	10	7	0.080798	38.988998	20.802	-69.487999
406	10	7	0.080054998	39.691002	23.500999	-68.134003
407	10	7	0.080054998	39.532001	23.207001	-69.908997
408	10	7	0.080054998	41.417	21.566	-69.815002
409	10	7	0.080054998	41.577	21.860001	-68.040001
410	10	7	0.080798	42.119999	24.264999	-68.460999
411	10	7	0.080798	41.844002	24.033001	-70.219002
412	10	7	0.081822	44.205002	24.016001	-69.903999
413	10	7	0.081822	43.737	22.323	-70.260002
414	10	6	0.048168998	44.224998	23.451	-67.406998
415	10	6	0.048168998	43.877998	21.742001	-67.843002
416	10	5	0.32012299	46.113998	21.448	-68.441002
417	18	8	-0.50255001	47.728001	23.257	-68.717003
418	18	4	0.111481	48.445	23.921	-67.712997
419	18	4	-0.141012	49.942001	23.648001	-67.865997
420	18	4	-0.14198899	50.493	24.228001	-69.179001
421	18	4	-0.143158	52.021999	24.108	-69.283997
422	18	4	-0.141829	52.487	22.659	-69.497002
423	18	4	-0.141829	54.002998	22.598	-69.725998
424	18	4	-0.143158	54.467999	21.15	-69.940002
425	18	4	-0.14198899	55.997002	21.027	-70.042
426	18	4	-0.141012	56.549	21.596001	-71.358002
427	18	4	0.111481	58.058998	21.365	-71.486
428	18	8	-0.50255001	58.353001	19.995001	-71.557999
429	18	6	0.078331999	48.251999	25.017	-67.766998
430	18	6	0.078331999	48.113998	23.554001	-66.716003
431	18	7	0.085603997	50.473999	24.108999	-67.005997
432	18	7	0.085603997	50.106998	22.551001	-67.832001
433	18	7	0.081776999	50.016998	23.724001	-70.049004
434	18	7	0.081776999	50.230999	25.308001	-69.232002
435	18	7	0.080054998	52.355	24.723	-70.148003
436	18	7	0.080054998	52.495998	24.528	-68.370003
437	18	7	0.080054998	51.966	22.228001	-70.378998
438	18	7	0.080054998	52.235001	22.051001	-68.601997
439	18	7	0.080054998	54.255001	23.207001	-70.620003
440	18	7	0.080054998	54.523998	23.028999	-68.844002
441	18	7	0.080054998	54.132999	20.535	-69.074997
442	18	7	0.080054998	53.994999	20.73	-70.853996
443	18	7	0.081776999	56.473999	21.539	-69.177002
444	18	7	0.081776999	56.256001	19.948	-69.977997
445	18	7	0.085603997	56.033001	21.125	-72.223
446	18	7	0.085603997	56.366001	22.690001	-71.400002
447	18	6	0.078331999	58.441002	21.886	-72.392998
448	18	6	0.078331999	58.580002	21.799999	-70.607002
449	11	1	0.781138	58.085999	19.684	-72.511002
450	11	2	-0.63376302	56.964001	20.014999	-72.977997
451	11	3	-0.47187001	58.999001	18.893	-73.278999
452	11	4	0.022050999	58.695	18.422001	-74.628998
453	11	4	-0.146938	57.724998	17.233999	-74.575996
454	11	4	-0.14347599	57.27	16.778	-75.971001
455	11	4	-0.14307401	58.387001	16.077999	-76.759003
456	11	4	-0.14307401	57.858002	15.522	-78.086998
457	11	4	-0.14347599	58.974998	14.822	-78.875
458	11	4	-0.146938	58.52	14.365	-80.269997
459	11	4	0.022050999	57.549999	13.177	-80.217003
460	11	3	-0.47187001	57.245998	12.707	-81.567001
461	11	1	0.781138	58.159	11.916	-82.335999
462	11	2	-0.63376302	59.280998	11.585	-81.867996
463	11	5	0.32012299	59.944	18.698999	-72.877998
464	11	6	0.048168998	59.641998	18.106001	-75.114998
465	11	6	0.048168998	58.264	19.254	-75.226997
466	11	7	0.081822	58.200001	16.386999	-74.035004
467	11	7	0.081822	56.820999	17.531	-74.001999
468	11	7	0.080798	56.424999	16.066999	-75.838997
469	11	7	0.080798	56.889	17.65	-76.546997
470	11	7	0.080054998	58.803001	15.244	-76.152
471	11	7	0.080054998	59.202	16.802	-76.973999
472	11	7	0.080054998	57.442001	16.356001	-78.694
473	11	7	0.080054998	57.042	14.798	-77.873001
474	11	7	0.080798	59.355999	13.95	-78.299004
475	11	7	0.080798	59.82	15.533	-79.007004
476	11	7	0.081822	59.424	14.069	-80.844002
477	11	7	0.081822	58.044998	15.213	-80.810997
478	11	6	0.048168998	57.980999	12.345	-79.619003
479	11	6	0.048168998	56.603001	13.494	-79.732002
480	11	5	0.32012299	56.300999	12.901	-81.968002
481	19	8	-0.50255001	57.891998	11.605	-83.289001
482	19	4	0.111481	58.056	10.213	-83.302002
483	19	4	-0.141012	57.692001	9.6540003	-84.679001
484	19	4	-0.14198899	58.648998	10.164	-85.768997
485	19	4	-0.143158	58.404999	9.4940004	-87.130997
486	19	4	-0.141829	57.094002	9.9519997	-87.789001
487	19	4	-0.141829	56.952	9.3640003	-89.197998
488	19	4	-0.143158	55.641998	9.823	-89.856003
489	19	4	-0.14198899	55.395	9.1520004	-91.216003
490	19	4	-0.141012	56.342999	9.6680002	-92.310997
491	19	4	0.111481	56.007	9.0670004	-93.68
492	19	8	-0.50255001	54.737	9.4759998	-94.110001
493	19	6	0.078331999	59.108002	9.9490004	-83.052002
494	19	6	0.078331999	57.387001	9.7539997	-82.541
495	19	7	0.085603997	57.741001	8.5450001	-84.633003
496	19	7	0.085603997	56.647999	9.948	-84.917
497	19	7	0.081776999	58.556999	11.267	-85.872002
498	19	7	0.081776999	59.695	9.941	-85.461998
499	19	7	0.080054998	59.254002	9.7600002	-87.799004
500	19	7	0.080054998	58.403	8.3889999	-87.012001
501	19	7	0.080054998	57.080002	11.063	-87.851997
502	19	7	0.080054998	56.231998	9.6199999	-87.172997
503	19	7	0.080054998	57.814999	9.6960001	-89.814003
504	19	7	0.080054998	56.966999	8.2539997	-89.134003
505	19	7	0.080054998	54.793999	9.559	-89.185997
506	19	7	0.080054998	55.644001	10.928	-89.975998
507	19	7	0.081776999	55.495998	8.0489998	-91.116997
508	19	7	0.081776999	54.347	9.3669996	-91.515999
509	19	7	0.085603997	56.284	10.776	-92.373001
510	19	7	0.085603997	57.389	9.3900003	-92.061996
511	19	6	0.078331999	56.779999	9.3739996	-94.421997
512	19	6	0.078331999	56.027	7.9580002	-93.617996
513	3	8	-0.50255001	-7.1729999	0.071000002	0.142
514	3	4	0.111481	-7.4840002	-0.44	1.409
515	3	4	-0.141012	-8.8959999	-0.017000001	1.8150001
516	3	4	-0.14198899	-9.96	-0.62199998	0.88599998
517	3	4	-0.143158	-11.394	-0.34200001	1.365
518	3	4	-0.141829	-11.798	1.13	1.1950001
519	3	4	-0.141829	-13.272	1.341	1.561
520	3	4	-0.14310899	-13.676	2.813	1.39
521	3	4	-0.136637	-15.108	3.095	1.872
522	3	4	-0.168937	-16.174	2.5	0.93699998
523	3	4	0.086226001	-17.591	2.8859999	1.377
524	3	9	-0.68498898	-17.787001	4.2709999	1.278
525	3	6	0.078331999	-7.4089999	-1.551	1.403
526	3	6	0.078331999	-6.7620001	-0.043000001	2.1570001
527	3	7	0.085603997	-9.0799999	-0.35499999	2.859
528	3	7	0.085603997	-8.9540005	1.092	1.794
529	3	7	0.081776999	-9.8290005	-0.234	-0.148
530	3	7	0.081776999	-9.8210001	-1.725	0.85100001
531	3	7	0.080054998	-12.084	-0.97500002	0.76599997
532	3	7	0.080054998	-11.5	-0.64399999	2.4300001
533	3	7	0.080054998	-11.634	1.439	0.139
534	3	7	0.080054998	-11.17	1.768	1.853
535	3	7	0.080054998	-13.899	0.70300001	0.903
536	3	7	0.080054998	-13.435	1.0319999	2.6170001
537	3	7	0.080054998	-12.984	3.4460001	1.988
538	3	7	0.080054998	-13.571	3.1140001	0.32499999
539	3	7	0.081949003	-15.244	2.6989999	2.902
540	3	7	0.081949003	-15.241	4.198	1.915
541	3	7	0.088968001	-16.004999	2.8510001	-0.104
542	3	7	0.088968001	-16.103001	1.392	0.94499999
543	3	6	0.068388	-18.336	2.348	0.74800003
544	3	6	0.068388	-17.754999	2.572	2.4300001
545	3	10	0.37742999	-17.889999	4.4749999	0.31200001
546	2	1	0.781138	54.834	10.506	-94.427002
547	2	2	-0.63376302	54.082001	11.382	-93.922997
548	2	3	-0.47187001	55.82	10.857	-95.403999
549	2	4	0.022050999	56.009998	12.226	-95.877998
550	2	4	-0.146938	54.877998	12.623	-96.834
551	2	4	-0.14347599	55.126999	13.971	-97.535004
552	2	4	-0.14307401	55.256001	15.182	-96.593002
553	2	4	-0.142891	53.979	15.443	-95.776001
554	2	4	-0.139084	54.077999	16.715	-94.917
555	2	4	-0.124536	53.917999	18.002001	-95.744003
556	2	4	0.181457	53.931999	19.250999	-94.859001
557	2	3	-0.67740601	52.742001	19.289	-94.016998
558	2	11	0.59127498	52.542999	20.246	-93.203003
559	2	2	-0.509305	52.348999	21.176001	-92.411003
560	2	5	0.32012299	56.465	10.11	-95.747002
561	2	6	0.048168998	56.049	12.913	-95.005997
562	2	6	0.048168998	56.981998	12.291	-96.413002
563	2	7	0.081822	54.792	11.842	-97.621002
564	2	7	0.081822	53.907001	12.644	-96.295998
565	2	7	0.080798	56.056999	13.893	-98.139
566	2	7	0.080798	54.293999	14.157	-98.248001
567	2	7	0.080054998	56.123001	15.049	-95.913002
568	2	7	0.080054998	55.474998	16.066	-97.226997
569	2	7	0.080054998	53.097	15.51	-96.450996
570	2	7	0.080054998	53.813999	14.59	-95.084999
571	2	7	0.079530001	53.269001	16.674	-94.154999
572	2	7	0.079530001	55.049	16.729	-94.374001
573	2	7	0.075498	52.966	17.969999	-96.317001
574	2	7	0.075498	54.754002	18.087999	-96.469002
575	2	6	0.024711	53.950001	20.152	-95.511002
576	2	6	0.024711	54.847	19.257	-94.224998

Bonds

1	1	1	2
2	2	1	3
3	3	1	513
4	4	3	4
5	5	3	15
6	6	4	5
7	7	4	16
8	7	4	17
9	6	5	6
10	7	5	18
11	7	5	19
12	6	6	7
13	7	6	20
14	7	6	21
15	6	7	8
16	7	7	22
17	7	7	23
18	6	8	9
19	7	8	24
20	7	8	25
21	6	9	10
22	7	9	26
23	7	9	27
24	6	10	11
25	7	10	28
26	7	10	29
27	4	11	12
28	7	11	30
29	7	11	31
30	2	12	13
31	5	12	32
32	1	13	14
33	3	13	33
34	8	33	34
35	6	34	35
36	7	34	45
37	7	34	46
38	6	35	36
39	7	35	47
40	7	35	48
41	6	36	37
42	7	36	49
43	7	36	50
44	6	37	38
45	7	37	51
46	7	37	52
47	6	38	39
48	7	38	53
49	7	38	54
50	6	39	40
51	7	39	55
52	7	39	56
53	6	40	41
54	7	40	57