Title

468 atoms
467 bonds
878 angles
1653 dihedrals
102 impropers

11 atom types
12 bond types
9 angle types
29 dihedral types
2 improper types
-10.97999954 89.02000046 xlo xhi
-62.5929985 37.4070015 ylo yhi
-21.43099976 78.56900024 zlo zhi
0.0 0.0 0.0 xy xz yz

Masses

1	12.01078
2	15.99943
3	14.00672
4	12.01078
5	1.007947
6	1.007947
7	1.007947
8	15.99943
9	15.99943
10	1.007947
11	12.01078


Pair Coeffs

1	0.086879315	3.4806469
2	0.2102061	3.0398122
3	0.16769152	3.206876
4	0.10884061	3.3795318
5	0.014090815	1.1034277
6	0.016409246	2.5832257
7	0.015779483	2.6445434
8	0.16846514	3.0251065
9	0.20947353	2.99716
10	1.2326e-05	0.53453923
11	0.21	3.3996695

Bond Coeffs

1 harmonic	582.698766451	1.225198386222
2 harmonic	492.76746816345	1.381897776683
3 harmonic	301.15400723785	1.345741232799
4 harmonic	352.0565580496	1.450098586273
5 harmonic	505.144496193	1.019481865027
6 harmonic	264.62148576755	1.52190126495
7 harmonic	370.04670688625	1.093899492634
8 harmonic	366.7408841747	1.425895053732
9 harmonic	329.96998057905	1.427343958716
10 harmonic	543.5267831885	0.9716763312559
11 harmonic	366.34047229585	1.464762957261
12 harmonic	602.81384337	1.196112346392


Angle Coeffs

1 harmonic	55.42182150775	117.3465570514
2 harmonic	63.44422595415	115.5071327674
3 harmonic	65.09061609600001	110.3538806181
4 harmonic	57.8982893754	126.8062420451
5 harmonic	201.41175231035	127.4691416191
6 harmonic	53.20531626545	116.5475862634
7 harmonic	48.776492647595	115.6030999533
8 harmonic	55.07882548015	112.8714009681
9 harmonic	33.56981613361	180


Dihedral Coeffs

1 fourier 1	-0.1488678166443	4	180
2 fourier 1	-0.1230328948768	3	180
3 fourier 1	0.2939295466901	2	0
4 fourier 1	-0.3024127022865	1	0
5 fourier 1	0.182238503271	2	0
6 fourier 1	0.02972342374561	3	0
7 fourier 1	0.1918272375143	3	0
8 fourier 1	0.9202179876409	1	180
9 fourier 1	0.0473758381877	3	0
10 fourier 1	1.809047390003	2	180
11 fourier 1	-0.04816277792592	1	0
12 fourier 1	0.4860993122944	2	180
13 fourier 1	0.8916986138746	1	0
14 fourier 1	1.163809172478	2	180
15 fourier 1	0.1679186987369	1	180
16 fourier 1	2.779853741805	2	180
17 fourier 1	0.1155372516788	3	0
18 fourier 1	0.09223874044423	3	0
19 fourier 1	0.3159935921949	2	180
20 fourier 1	0.3247796806857	1	180
21 fourier 1	0.1040663847541	3	0
22 fourier 1	0.1911926717192	3	0
23 fourier 1	0.1115525666802	3	0
24 fourier 1	0.3432490222662	1	0
25 fourier 1	0.3445382149273	3	0
26 fourier 1	0.1364556373303	1	0
27 fourier 1	0.3026390167484	3	0
28 fourier 1	-1.382973039546	1	0
29 fourier 1	0	1	0


Improper Coeffs

1 0.3333333333333333	-1	2
2 3.5	-1	2


Atoms

1	4	1	0.78226298	3.878	0.43000001	-0.41499999
2	4	2	-0.62848699	4.1739998	-0.037	-1.5470001
3	4	3	-0.470552	2.5969999	0.178	0.17
4	4	4	0.021304	1.59	-0.63599998	-0.51300001
5	4	4	-0.14718901	0.287	-0.71600002	0.292
6	4	4	-0.14718901	-0.47099999	0.62099999	0.294
7	4	4	0.021304	-1.757	0.54699999	1.126
8	4	3	-0.470552	-2.7090001	-0.403	0.551
9	4	1	0.78226298	-3.4660001	-0.123	-0.63
10	4	2	-0.62848699	-3.349	0.97899997	-1.228
11	4	5	0.32137501	2.405	0.579	1.115
12	4	6	0.050117001	1.383	-0.211	-1.52
13	4	6	0.050117001	1.99	-1.664	-0.648
14	4	7	0.08371	0.51300001	-1.03	1.335
15	4	7	0.08371	-0.35699999	-1.498	-0.16599999
16	4	7	0.08371	0.175	1.415	0.72600001
17	4	7	0.08371	-0.71499997	0.91600001	-0.74900001
18	4	6	0.050117001	-2.2249999	1.554	1.184
19	4	6	0.050117001	-1.506	0.237	2.164
20	4	5	0.32137501	-2.8870001	-1.302	1.053
21	12	8	-0.501441	-4.1259999	-0.83399999	-0.99699998
22	12	4	0.112169	-5.1789999	-0.89899999	-0.075999998
23	12	4	-0.14044601	-6.21	-1.9349999	-0.52600002
24	12	4	-0.14145	-5.6209998	-3.355	-0.53500003
25	12	4	-0.142629	-6.678	-4.4310002	-0.82999998
26	12	4	-0.14129999	-7.1560001	-4.4070001	-2.289
27	12	4	-0.14129999	-8.1079998	-5.5749998	-2.575
28	12	4	-0.142629	-8.5860004	-5.5510001	-4.0339999
29	12	4	-0.14145	-9.6450005	-6.6259999	-4.329
30	12	4	-0.14044601	-9.0559998	-8.0459995	-4.3499999
31	12	4	0.112169	-10.106	-9.0869999	-4.7540002
32	12	8	-0.501441	-10.538	-8.8800001	-6.0710001
33	12	6	0.080173999	-4.79	-1.165	0.93199998
34	12	6	0.080173999	-5.6750002	0.094999999	-0.0099999998
35	12	7	0.087063	-7.0760002	-1.897	0.17
36	12	7	0.087063	-6.5679998	-1.661	-1.541
37	12	7	0.083164997	-4.7989998	-3.4219999	-1.281
38	12	7	0.083164997	-5.1859999	-3.569	0.46599999
39	12	7	0.081428997	-6.223	-5.4239998	-0.61799997
40	12	7	0.081428997	-7.5450001	-4.3060002	-0.14399999
41	12	7	0.081428997	-6.2779999	-4.4759998	-2.9679999
42	12	7	0.081428997	-7.6880002	-3.4530001	-2.4920001
43	12	7	0.081428997	-7.5760002	-6.5289998	-2.372
44	12	7	0.081428997	-8.9860001	-5.506	-1.896
45	12	7	0.081428997	-9.04	-4.5580001	-4.2459998
46	12	7	0.081428997	-7.7199998	-5.678	-4.7189999
47	12	7	0.083164997	-10.463	-6.5650001	-3.5780001
48	12	7	0.083164997	-10.086	-6.4029999	-5.3249998
49	12	7	0.087063	-8.2019997	-8.0930004	-5.0599999
50	12	7	0.087063	-8.6820002	-8.3109999	-3.339
51	12	6	0.080173999	-9.6759996	-10.109	-4.6490002
52	12	6	0.080173999	-10.98	-9.0220003	-4.072
53	5	1	0.78226298	-9.7740002	-9.2089996	-6.6900001
54	5	2	-0.62848699	-8.684	-9.585	-6.1820002
55	5	3	-0.470552	-9.9680004	-9.2309999	-8.1070004
56	5	4	0.021304	-8.9209995	-9.698	-9.0170002
57	5	4	-0.14718901	-9.3520002	-9.5769997	-10.484
58	5	4	-0.14718901	-9.4110003	-8.1120005	-10.946
59	5	4	0.021304	-9.8730001	-7.9920001	-12.404
60	5	3	-0.470552	-8.9169998	-8.618	-13.317
61	5	1	0.78226298	-7.6570001	-8.0249996	-13.647
62	5	2	-0.62848699	-7.3179998	-6.9120002	-13.162
63	5	5	0.32137501	-10.894	-8.9189997	-8.4770002
64	5	6	0.050117001	-7.9899998	-9.1140003	-8.849
65	5	6	0.050117001	-8.7030001	-10.765	-8.7950001
66	5	7	0.08371	-10.343	-10.063	-10.622
67	5	7	0.08371	-8.6129999	-10.126	-11.108
68	5	7	0.08371	-10.127	-7.5489998	-10.31
69	5	7	0.08371	-8.4119997	-7.6399999	-10.829
70	5	6	0.050117001	-9.9969997	-6.9200001	-12.671
71	5	6	0.050117001	-10.865	-8.4799995	-12.517
72	5	5	0.32137501	-9.1859999	-9.507	-13.795
73	13	8	-0.501441	-7.0149999	-8.5129995	-14.299
74	13	4	0.112169	-7.6199999	-8.448	-15.561
75	13	4	-0.14044601	-6.7480001	-9.1540003	-16.6
76	13	4	-0.14145	-6.625	-10.659	-16.309999
77	13	4	-0.142629	-5.8870001	-11.417	-17.424999
78	13	4	-0.14129999	-4.3839998	-11.1	-17.462
79	13	4	-0.14129999	-3.664	-11.972	-18.497999
80	13	4	-0.142629	-2.161	-11.655	-18.535
81	13	4	-0.14145	-1.423	-12.411	-19.650999
82	13	4	-0.14044601	-1.288	-13.914	-19.358
83	13	4	0.112169	-0.45500001	-14.627	-20.429001
84	13	8	-0.501441	0.86799997	-14.161	-20.427999
85	13	6	0.080173999	-8.6269999	-8.9219999	-15.527
86	13	6	0.080173999	-7.7420001	-7.3829999	-15.859
87	13	7	0.087063	-7.204	-9.0059996	-17.603001
88	13	7	0.087063	-5.743	-8.6789999	-16.601
89	13	7	0.083164997	-6.105	-10.819	-15.341
90	13	7	0.083164997	-7.645	-11.091	-16.221001
91	13	7	0.081428997	-6.0190001	-12.506	-17.242001
92	13	7	0.081428997	-6.348	-11.183	-18.41
93	13	7	0.081428997	-3.9419999	-11.283	-16.458
94	13	7	0.081428997	-4.2350001	-10.031	-17.726
95	13	7	0.081428997	-3.8139999	-13.04	-18.233
96	13	7	0.081428997	-4.1059999	-11.788	-19.502001
97	13	7	0.081428997	-2.03	-10.565	-18.715
98	13	7	0.081428997	-1.7	-11.89	-17.551001
99	13	7	0.083164997	-1.947	-12.259	-20.620001
100	13	7	0.083164997	-0.40700001	-11.969	-19.745001
101	13	7	0.087063	-0.815	-14.067	-18.363001
102	13	7	0.087063	-2.2939999	-14.383	-19.337999
103	13	6	0.080173999	-0.47400001	-15.725	-20.246
104	13	6	0.080173999	-0.89999998	-14.448	-21.431
105	6	1	0.78226298	1.329	-14.577	-19.597
106	6	2	-0.62848699	0.64499998	-15.255	-18.784
107	6	3	-0.470552	2.7290001	-14.375	-19.386999
108	6	4	0.021304	3.4219999	-14.952	-18.233999
109	6	4	-0.14718901	4.9029999	-14.551	-18.205999
110	6	4	-0.14718901	5.0890002	-13.066	-17.857
111	6	4	0.021304	6.5679998	-12.66	-17.860001
112	6	3	-0.470552	7.316	-13.369	-16.823
113	6	1	0.78226298	7.21	-13.045	-15.432
114	6	2	-0.62848699	6.4619999	-12.111	-15.04
115	6	5	0.32137501	3.2520001	-13.814	-20.096001
116	6	6	0.050117001	2.9260001	-14.623	-17.295
117	6	6	0.050117001	3.3529999	-16.059999	-18.292
118	6	7	0.08371	5.3670001	-14.775	-19.191
119	6	7	0.08371	5.415	-15.172	-17.438999
120	6	7	0.08371	4.5560002	-12.438	-18.603001
121	6	7	0.08371	4.6440001	-12.855	-16.861
122	6	6	0.050117001	6.6560001	-11.564	-17.701
123	6	6	0.050117001	7.0100002	-12.888	-18.855
124	6	5	0.32137501	8	-14.105	-17.108999
125	14	8	-0.501441	7.7620001	-13.582	-14.737
126	14	4	0.112169	9.1000004	-13.221	-14.942
127	14	4	-0.14044601	10.003	-13.972	-13.962
128	14	4	-0.14145	9.9729996	-15.489	-14.21
129	14	4	-0.142629	10.99	-16.250999	-13.346
130	14	4	-0.14129999	10.597	-16.285999	-11.862
131	14	4	-0.14129999	11.565	-17.162001	-11.057
132	14	4	-0.142629	11.171	-17.198	-9.573
133	14	4	-0.14145	12.19	-17.957001	-8.7069998
134	14	4	-0.14044601	12.153	-19.475	-8.9449997
135	14	4	0.112169	13.097	-20.219999	-7.9949999
136	14	8	-0.501441	12.685	-20.075001	-6.6620002
137	14	6	0.080173999	9.4029999	-13.451	-15.988
138	14	6	0.080173999	9.2200003	-12.128	-14.773
139	14	7	0.087063	11.043	-13.598	-14.083
140	14	7	0.087063	9.6700001	-13.745	-12.927
141	14	7	0.083164997	8.9510002	-15.886	-14.023
142	14	7	0.083164997	10.218	-15.683	-15.277
143	14	7	0.081428997	11.049	-17.294001	-13.726
144	14	7	0.081428997	11.998	-15.794	-13.46
145	14	7	0.081428997	9.566	-16.691	-11.761
146	14	7	0.081428997	10.616	-15.256	-11.446
147	14	7	0.081428997	11.546	-18.191999	-11.473
148	14	7	0.081428997	12.596	-16.757	-11.158
149	14	7	0.081428997	11.111	-16.153999	-9.1929998
150	14	7	0.081428997	10.164	-17.655001	-9.4580002
151	14	7	0.083164997	13.213	-17.566999	-8.901
152	14	7	0.083164997	11.948	-17.752001	-7.6409998
153	14	7	0.087063	11.118	-19.857	-8.8070002
154	14	7	0.087063	12.468	-19.698999	-9.9860001
155	14	6	0.080173999	13.128	-21.299	-8.2709999
156	14	6	0.080173999	14.127	-19.818001	-8.1000004
157	7	1	0.78226298	11.856	-20.687	-6.54
158	7	2	-0.62848699	11.375	-21.285999	-7.5380001
159	7	3	-0.470552	11.274	-20.841	-5.243
160	7	4	0.021304	10.112	-21.702999	-5.0209999
161	7	4	-0.14718901	9.6470003	-21.660999	-3.5599999
162	7	4	-0.14718901	8.9969997	-20.313999	-3.2030001
163	7	4	0.021304	8.5609999	-20.263	-1.733
164	7	3	-0.470552	7.5190001	-21.249001	-1.4529999
165	7	1	0.78226298	6.1630001	-21.087999	-1.881
166	7	2	-0.62848699	5.803	-20.063	-2.5190001
167	7	5	0.32137501	11.718	-20.330999	-4.4450002
168	7	6	0.050117001	9.2799997	-21.389999	-5.6900001
169	7	6	0.050117001	10.387	-22.747999	-5.2779999
170	7	7	0.08371	10.511	-21.858999	-2.8889999
171	7	7	0.08371	8.9040003	-22.474001	-3.4089999
172	7	7	0.08371	9.7229996	-19.490999	-3.3770001
173	7	7	0.08371	8.1199999	-20.134001	-3.8610001
174	7	6	0.050117001	8.1870003	-19.245001	-1.488
175	7	6	0.050117001	9.441	-20.459	-1.082
176	7	5	0.32137501	7.7579999	-22.080999	-0.86799997
177	15	8	-0.501441	5.4629998	-21.82	-1.6569999
178	15	4	0.112169	5.2620001	-21.754999	-0.273
179	15	4	-0.14044601	4.244	-22.811001	0.162
180	15	4	-0.14145	4.7659998	-24.236	-0.082999997
181	15	4	-0.142629	3.832	-25.313999	0.49000001
182	15	4	-0.14129999	2.5220001	-25.444	-0.30199999
183	15	4	-0.14129999	1.679	-26.614	0.21799999
184	15	4	-0.142629	0.37	-26.745001	-0.574
185	15	4	-0.14145	-0.56599998	-27.820999	-0.001
186	15	4	-0.14044601	-0.052999999	-29.247	-0.25400001
187	15	4	0.112169	-1.054	-30.302999	0.228
188	15	8	-0.501441	-2.247	-30.236	-0.50599998
189	15	6	0.080173999	6.2249999	-21.915001	0.26199999
190	15	6	0.080173999	4.8709998	-20.747999	-0.0020000001
191	15	7	0.087063	4.0339999	-22.674	1.245
192	15	7	0.087063	3.3	-22.645	-0.39899999
193	15	7	0.083164997	4.9120002	-24.407	-1.171
194	15	7	0.083164997	5.756	-24.344999	0.41100001
195	15	7	0.081428997	4.3699999	-26.285999	0.45500001
196	15	7	0.081428997	3.609	-25.091999	1.557
197	15	7	0.081428997	2.7550001	-25.610001	-1.377
198	15	7	0.081428997	1.934	-24.507	-0.207
199	15	7	0.081428997	2.2679999	-27.551001	0.123
200	15	7	0.081428997	1.446	-26.448	1.293
201	15	7	0.081428997	-0.168	-25.771	-0.54100001
202	15	7	0.081428997	0.59299999	-26.969	-1.641
203	15	7	0.083164997	-0.70599997	-27.656	1.09
204	15	7	0.083164997	-1.559	-27.702	-0.48800001
205	15	7	0.087063	0.14	-29.395	-1.339
206	15	7	0.087063	0.90100002	-29.405001	0.292
207	15	6	0.080173999	-0.602	-31.316999	0.132
208	15	6	0.080173999	-1.2819999	-30.139999	1.303
209	8	1	0.78226298	-2.0469999	-30.652	-1.4349999
210	8	2	-0.62848699	-0.86900002	-30.993	-1.721
211	8	3	-0.470552	-3.1099999	-30.829	-2.375
212	8	4	0.021304	-2.8759999	-31.421	-3.6930001
213	8	4	-0.14718901	-4.1599998	-31.458	-4.533
214	8	4	-0.14718901	-4.586	-30.052999	-4.9910002
215	8	4	0.021304	-5.8870001	-30.089001	-5.8039999
216	8	3	-0.470552	-5.7160001	-30.836	-7.0489998
217	8	1	0.78226298	-5.0040002	-30.313999	-8.1759996
218	8	2	-0.62848699	-4.4949999	-29.162001	-8.1429996
219	8	5	0.32137501	-4.0710001	-30.540001	-2.085
220	8	6	0.050117001	-2.092	-30.844	-4.2309999
221	8	6	0.050117001	-2.5079999	-32.460999	-3.5599999
222	8	7	0.08371	-4.9749999	-31.933001	-3.9449999
223	8	7	0.08371	-3.9719999	-32.091	-5.427
224	8	7	0.08371	-4.75	-29.405001	-4.1040001
225	8	7	0.08371	-3.776	-29.594999	-5.599
226	8	6	0.050117001	-6.2140002	-29.051001	-6.033
227	8	6	0.050117001	-6.6880002	-30.562	-5.1950002
228	8	5	0.32137501	-6.1789999	-31.767	-7.145
229	16	8	-0.501441	-4.9099998	-30.888	-9.0340004
230	16	4	0.112169	-6.1900001	-30.952999	-9.599
231	16	4	-0.14044601	-6.1599998	-31.792	-10.878
232	16	4	-0.14145	-5.7940001	-33.257	-10.586
233	16	4	-0.142629	-5.9120002	-34.153999	-11.829
234	16	4	-0.14129999	-4.8109999	-33.877998	-12.864
235	16	4	-0.14129999	-4.8839998	-34.879002	-14.024
236	16	4	-0.142629	-3.783	-34.603001	-15.059
237	16	4	-0.14145	-3.901	-35.498001	-16.302999
238	16	4	-0.14044601	-3.526	-36.960999	-16.017
239	16	4	0.112169	-3.5450001	-37.810001	-17.292
240	16	8	-0.501441	-2.5639999	-37.379002	-18.198
241	16	6	0.080173999	-6.9070001	-31.396	-8.8730001
242	16	6	0.080173999	-6.5359998	-29.926001	-9.8529997
243	16	7	0.087063	-7.164	-31.747999	-11.353
244	16	7	0.087063	-5.4229999	-31.344	-11.578
245	16	7	0.083164997	-4.763	-33.318001	-10.176
246	16	7	0.083164997	-6.4879999	-33.652	-9.8129997
247	16	7	0.081428997	-5.8330002	-35.212002	-11.495
248	16	7	0.081428997	-6.9130001	-34.021999	-12.296
249	16	7	0.081428997	-3.8150001	-33.957001	-12.375
250	16	7	0.081428997	-4.928	-32.849998	-13.268
251	16	7	0.081428997	-4.7680001	-35.907001	-13.619
252	16	7	0.081428997	-5.8800001	-34.799999	-14.513
253	16	7	0.081428997	-3.8610001	-33.544998	-15.391
254	16	7	0.081428997	-2.7820001	-34.736	-14.592
255	16	7	0.083164997	-4.9349999	-35.445	-16.709
256	16	7	0.083164997	-3.214	-35.094002	-17.077999
257	16	7	0.087063	-2.5139999	-37.011002	-15.559
258	16	7	0.087063	-4.2519999	-37.401001	-15.301
259	16	6	0.080173999	-3.3789999	-38.880001	-17.031
260	16	6	0.080173999	-4.5409999	-37.736	-17.777
261	9	1	0.78226298	-1.653	-37.708	-17.827
262	9	2	-0.62848699	-1.609	-38.272999	-16.702
263	9	3	-0.470552	-0.46399999	-37.516998	-18.598
264	9	4	0.021304	0.84100002	-37.974998	-18.120001
265	9	4	-0.14718901	1.964	-37.609001	-19.1
266	9	4	-0.14718901	2.2479999	-36.098999	-19.108999
267	9	4	0.021304	3.348	-35.730999	-20.112
268	9	3	-0.470552	4.6279998	-36.334999	-19.743
269	9	1	0.78226298	5.4289999	-35.853001	-18.659
270	9	2	-0.62848699	5.0609999	-34.862999	-17.973
271	9	5	0.32137501	-0.55599999	-37.051998	-19.530001
272	9	6	0.050117001	1.054	-37.530998	-17.122999
273	9	6	0.050117001	0.81400001	-39.081001	-18.006001
274	9	7	0.08371	1.692	-37.953999	-20.122
275	9	7	0.08371	2.8840001	-38.151001	-18.792
276	9	7	0.08371	1.325	-35.547001	-19.389999
277	9	7	0.08371	2.543	-35.765999	-18.09
278	9	6	0.050117001	3.457	-34.625999	-20.160999
279	9	6	0.050117001	3.053	-36.080002	-21.125999
280	9	5	0.32137501	5.0040002	-37.113998	-20.327999
281	17	8	-0.501441	6.3280001	-36.32	-18.438
282	17	4	0.112169	7.1929998	-36.016998	-19.497999
283	17	4	-0.14044601	8.5559998	-36.673	-19.268999
284	17	4	-0.14145	8.4569998	-38.207001	-19.282
285	17	4	-0.142629	9.8319998	-38.889	-19.212999
286	17	4	-0.14129999	10.495	-38.745998	-17.834999
287	17	4	-0.14129999	11.801	-39.549	-17.768
288	17	4	-0.142629	12.464	-39.405998	-16.389
289	17	4	-0.14145	13.84	-40.085999	-16.32
290	17	4	-0.14044601	13.743	-41.619999	-16.322001
291	17	4	0.112169	15.118	-42.273998	-16.142
292	17	8	-0.501441	15.658	-41.970001	-14.885
293	17	6	0.080173999	6.7600002	-36.370998	-20.459999
294	17	6	0.080173999	7.3319998	-34.914001	-19.558001
295	17	7	0.087063	9.2480001	-36.339001	-20.073
296	17	7	0.087063	8.9589996	-36.321999	-18.295
297	17	7	0.083164997	7.823	-38.556	-18.437
298	17	7	0.083164997	7.9640002	-38.526001	-20.226
299	17	7	0.081428997	9.6890001	-39.970001	-19.431999
300	17	7	0.081428997	10.499	-38.473	-20
301	17	7	0.081428997	9.7989998	-39.112999	-17.049
302	17	7	0.081428997	10.721	-37.676998	-17.639
303	17	7	0.081428997	11.574	-40.618	-17.964001
304	17	7	0.081428997	12.497	-39.181999	-18.554001
305	17	7	0.081428997	12.605	-38.325001	-16.17
306	17	7	0.081428997	11.797	-39.824001	-15.603
307	17	7	0.083164997	14.472	-39.744999	-17.17
308	17	7	0.083164997	14.335	-39.756001	-15.381
309	17	7	0.087063	13.067	-41.959	-15.507
310	17	7	0.087063	13.322	-41.967999	-17.289
311	17	6	0.080173999	15.024	-43.377998	-16.261
312	17	6	0.080173999	15.811	-41.911999	-16.931
313	10	1	0.78226298	15.142	-42.543999	-14.192
314	10	2	-0.62848699	14.163	-43.241001	-14.572
315	10	3	-0.470552	15.547	-42.535999	-12.821
316	10	4	0.021304	14.854	-43.339001	-11.813
317	10	4	-0.14718901	15.443	-43.120998	-10.413
318	10	4	-0.14718901	15.105	-41.728001	-9.8590002
319	10	4	0.021304	15.721	-41.5	-8.4729996
320	10	3	-0.470552	15.165	-42.424	-7.4850001
321	10	1	0.78226298	13.847	-42.279999	-6.9439998
322	10	2	-0.62848699	13.104	-41.326	-7.296
323	10	5	0.32137501	16.371	-41.950001	-12.559
324	10	6	0.050117001	13.772	-43.084999	-11.808
325	10	6	0.050117001	14.955	-44.414001	-12.078
326	10	7	0.08371	16.546	-43.263	-10.448
327	10	7	0.08371	15.022	-43.895	-9.7349997
328	10	7	0.08371	15.498	-40.948002	-10.545
329	10	7	0.08371	14.002	-41.603001	-9.8039999
330	10	6	0.050117001	15.538	-40.452999	-8.1479998
331	10	6	0.050117001	16.822001	-41.640999	-8.5319996
332	10	5	0.32137501	15.771	-43.188999	-7.1139998
333	18	8	-0.501441	13.501	-42.966	-6.2470002
334	18	4	0.112169	14.24	-42.737999	-5.079
335	18	4	-0.14044601	13.806	-43.714001	-3.984
336	18	4	-0.14145	14.124	-45.169998	-4.362
337	18	4	-0.142629	13.845	-46.153999	-3.2149999
338	18	4	-0.14129999	12.343	-46.341999	-2.9489999
339	18	4	-0.14129999	12.104	-47.425999	-1.891
340	18	4	-0.142629	10.603	-47.613998	-1.626
341	18	4	-0.14145	10.322	-48.596001	-0.477
342	18	4	-0.14044601	10.628	-50.053001	-0.85600001
343	18	4	0.112169	10.238	-51.023998	0.264
344	18	8	-0.501441	8.8520002	-51.013	0.47799999
345	18	6	0.080173999	15.328	-42.859001	-5.2839999
346	18	6	0.080173999	14.062	-41.699001	-4.724
347	18	7	0.087063	14.34	-43.450001	-3.0450001
348	18	7	0.087063	12.716	-43.591	-3.8110001
349	18	7	0.083164997	13.541	-45.466999	-5.2610002
350	18	7	0.083164997	15.203	-45.245998	-4.6209998
351	18	7	0.081428997	14.286	-47.136002	-3.4920001
352	18	7	0.081428997	14.352	-45.806	-2.2880001
353	18	7	0.081428997	11.834	-46.634998	-3.8940001
354	18	7	0.081428997	11.905	-45.387001	-2.5910001
355	18	7	0.081428997	12.543	-48.381001	-2.2490001
356	18	7	0.081428997	12.613	-47.132999	-0.94599998
357	18	7	0.081428997	10.161	-46.631001	-1.35
358	18	7	0.081428997	10.095	-47.963001	-2.552
359	18	7	0.083164997	10.912	-48.305	0.41999999
360	18	7	0.083164997	9.2460003	-48.509998	-0.212
361	18	7	0.087063	10.082	-50.327999	-1.785
362	18	7	0.087063	11.716	-50.169998	-1.0470001
363	18	6	0.080173999	10.576	-52.051998	0.001
364	18	6	0.080173999	10.751	-50.734001	1.206
365	11	1	0.78226298	8.4259996	-51.535	-0.31
366	11	2	-0.62848699	9.1560001	-51.935001	-1.256
367	11	3	-0.470552	7.02	-51.793999	-0.31099999
368	11	4	0.021304	6.3779998	-52.535999	-1.397
369	11	4	-0.14718901	4.8600001	-52.638	-1.193
370	11	4	-0.14718901	4.1620002	-51.285	-1.405
371	11	4	0.021304	2.6489999	-51.381001	-1.17
372	11	3	-0.470552	2.0150001	-52.269001	-2.1440001
373	11	1	0.78226298	1.799	-51.895	-3.5090001
374	11	2	-0.62848699	2.1429999	-50.758999	-3.931
375	11	5	0.32137501	6.46	-51.450001	0.50199997
376	11	6	0.050117001	6.5939999	-52.042	-2.369
377	11	6	0.050117001	6.802	-53.563	-1.4299999
378	11	7	0.08371	4.6469998	-53.022999	-0.17200001
379	11	7	0.08371	4.461	-53.372002	-1.926
380	11	7	0.08371	4.5739999	-50.535999	-0.69599998
381	11	7	0.08371	4.3590002	-50.917	-2.4349999
382	11	6	0.050117001	2.194	-50.368999	-1.2359999
383	11	6	0.050117001	2.46	-51.764	-0.14300001
384	11	5	0.32137501	1.652	-53.194	-1.821
385	19	8	-0.501441	1.347	-52.564999	-4.1589999
386	19	4	0.112169	0.011	-52.662998	-3.7479999
387	19	4	-0.14044601	-0.74599999	-53.641998	-4.6469998
388	19	4	-0.14145	-0.198	-55.073002	-4.5149999
389	19	4	-0.142629	-1.041	-56.102001	-5.2849998
390	19	4	-0.14129999	-0.88800001	-55.972	-6.8080001
391	19	4	-0.14129999	-1.6390001	-57.095001	-7.533
392	19	4	-0.142629	-1.4859999	-56.965	-9.0559998
393	19	4	-0.14145	-2.3310001	-57.992001	-9.8269997
394	19	4	-0.14044601	-1.778	-59.422001	-9.7060003
395	19	4	0.112169	-2.5710001	-60.409	-10.57
396	19	8	-0.501441	-2.4349999	-60.105999	-11.932
397	19	6	0.080173999	-0.039999999	-53.004002	-2.6889999
398	19	6	0.080173999	-0.47400001	-51.664001	-3.819
399	19	7	0.087063	-1.8200001	-53.629002	-4.3579998
400	19	7	0.087063	-0.66399997	-53.294998	-5.698
401	19	7	0.083164997	0.85600001	-55.112	-4.869
402	19	7	0.083164997	-0.20299999	-55.362	-3.441
403	19	7	0.081428997	-0.70599997	-57.117001	-4.9759998
404	19	7	0.081428997	-2.1110001	-56.000999	-5.0009999
405	19	7	0.081428997	0.19	-56.018002	-7.0770001
406	19	7	0.081428997	-1.2970001	-54.993999	-7.1409998
407	19	7	0.081428997	-1.2309999	-58.073002	-7.1989999
408	19	7	0.081428997	-2.717	-57.049	-7.263
409	19	7	0.081428997	-1.819	-55.949001	-9.3640003
410	19	7	0.081428997	-0.41600001	-57.068001	-9.3400002
411	19	7	0.083164997	-3.3829999	-57.960999	-9.4680004
412	19	7	0.083164997	-2.3329999	-57.695	-10.898
413	19	7	0.087063	-0.70999998	-59.443001	-10.012
414	19	7	0.087063	-1.8430001	-59.761002	-8.651
415	19	6	0.080173999	-2.2160001	-61.445999	-10.371
416	19	6	0.080173999	-3.6470001	-60.367001	-10.296
417	3	8	-0.501441	4.5430002	0.97899997	0.075999998
418	3	4	0.112169	4.2459998	0.824	1.436
419	3	4	-0.14044601	5.2179999	1.646	2.2839999
420	3	4	-0.14145	5.0630002	3.1530001	2.026
421	3	4	-0.142629	5.914	4.0079999	2.9779999
422	3	4	-0.14129999	7.4169998	3.9100001	2.6760001
423	3	4	-0.14129999	8.2189999	4.8740001	3.5599999
424	3	4	-0.14257801	9.7220001	4.777	3.257
425	3	4	-0.136097	10.575	5.6279998	4.211
426	3	4	-0.168368	10.43	7.1360002	3.947
427	3	4	0.086958997	11.371	7.9590001	4.8340001
428	3	9	-0.68387902	12.713	7.6880002	4.5300002
429	3	6	0.080173999	3.2	1.149	1.6390001
430	3	6	0.080173999	4.3429999	-0.248	1.717
431	3	7	0.087063	5.02	1.431	3.3570001
432	3	7	0.087063	6.2540002	1.321	2.05
433	3	7	0.083164997	5.3280001	3.3900001	0.972
434	3	7	0.083164997	3.997	3.4349999	2.1760001
435	3	7	0.081428997	5.5939999	5.0669999	2.8659999
436	3	7	0.081428997	5.7189999	3.707	4.0310001
437	3	7	0.081428997	7.5970001	4.158	1.607
438	3	7	0.081428997	7.7690001	2.8729999	2.865
439	3	7	0.081428997	7.8670001	5.9099998	3.3710001
440	3	7	0.081428997	8.0389996	4.6259999	4.6290002
441	3	7	0.081428997	10.042	3.717	3.368
442	3	7	0.081428997	9.9169998	5.079	2.2049999
443	3	7	0.083338998	10.304	5.4000001	5.2649999
444	3	7	0.083338998	11.638	5.3369999	4.066
445	3	7	0.090452	10.646	7.3579998	2.8800001
446	3	7	0.090452	9.3889999	7.4549999	4.164
447	3	6	0.070502996	11.158	9.0430002	4.698
448	3	6	0.070502996	11.187	7.7150002	5.9029999
449	3	10	0.37911299	12.907	8.1479998	3.671
450	2	1	0.78226298	-1.443	-60.425999	-12.223
451	2	2	-0.62848699	-0.59100002	-60.689999	-11.333
452	2	3	-0.470552	-1.114	-60.544998	-13.61
453	2	4	0.021612	0.214	-60.972	-14.049
454	2	4	-0.14202	0.28999999	-61.023998	-15.581
455	2	4	-0.125239	1.619	-61.608002	-16.093
456	2	4	0.18172599	2.8299999	-60.698002	-15.851
457	2	3	-0.66977602	2.654	-59.417999	-16.530001
458	2	11	0.59173	3.461	-59.014	-17.427
459	2	2	-0.50027502	4.2459998	-58.620998	-18.299999
460	2	5	0.32137501	-1.855	-60.313	-14.31
461	2	6	0.050117001	0.96600002	-60.255001	-13.658
462	2	6	0.050117001	0.42699999	-61.98	-13.632
463	2	7	0.082647003	0.12899999	-60.007	-16.000999
464	2	7	0.082647003	-0.53299999	-61.672001	-15.954
465	2	7	0.077625997	1.801	-62.592999	-15.612
466	2	7	0.077625997	1.528	-61.789001	-17.186001
467	2	6	0.026312999	2.9719999	-60.52	-14.765
468	2	6	0.026312999	3.743	-61.219002	-16.219

Bonds

1	1	1	2
2	2	1	3
3	3	1	417
4	4	3	4
5	5	3	11
6	6	4	5
7	7	4	12
8	7	4	13
9	6	5	6
10	7	5	14
11	7	5	15
12	6	6	7
13	7	6	16
14	7	6	17
15	4	7	8
16	7	7	18
17	7	7	19
18	2	8	9
19	5	8	20
20	1	9	10
21	3	9	21
22	8	21	22
23	6	22	23
24	7	22	33
25	7	22	34
26	6	23	24
27	7	23	35
28	7	23	36
29	6	24	25
30	7	24	37
31	7	24	38
32	6	25	26
33	7	25	39
34	7	25	40
35	6	26	27
36	7	26	41
37	7	26	42
38	6	27	28
39	7	27	43
40	7	27	44
41	6	28	29
42	7	28	45
43	7	28	46
44	6	29	30
45	7	29	47
46	7	29	48
47	6	30	31
48	7	30	49
49	7	30	50
50	8	31	32
51	7	31	51
52	7	31	52
53	3	32	53
54	1	53	54
55	2	53	55
56	4	55	56
57	5	55	63
58	6	56	57
59	7	56	64
60	7	56	65
61	6	57	58
62	7	57	66
63	7	57	67
64	6	58	59
65	7	58	68
66	7	58	69
67	4	59	60
68	7	59	70
69	7	59	71
70	2	60	61
71	5	60	72
72	1	61	62
73	3	61	73
74	8	73	74
75	6	74	75
76	7	74	85
77	7	74	86
78	6	75	76
79	7	75	87
80	7	75	88
81	6	76	77
82	7	76	89
83	7	76	90
84	6	77	78
85	7	77	91
86	7	77	92
87	6	78	79
88	7	78	93
89	7	78	94
90	6	79	80
91	7	79	95
92	7	79	96
93	6	80	81
94	7	80	97
95	7	80	98
96	6	81	82
97	7	81	99
98	7	81	100
99	6	82	83
100	7	82	101
101	7	82	102
102	8	83	84
103	7	83	103
104	7	83	104
105	3	84	105
106	1	105	106
107	2	105	107
108	4	107	108
109	5	107	115
110	6	108	109
111	7	108	116
112	7	108	117
113	6	109	110
114	7	109	118
115	7	109	119
116	6	110	111
117	7	110	120
118	7	110	121
119	4	111	112
120	7	111	122
121	7	111	123
122	2	112	113
123	5	112	124
124	1	113	114
125	3	113	125
126	8	125	126
127	6	126	127
128	7	126	137
129	7	126	138
130	6	127	128
131	7	127	139
132	7	127	140
133	6	128	129
134	7	128	141
135	7	128	142
136	6	129	130
137	7	129	143
138	7	129	144
139	6	130	131
140	7	130	145
141	7	130	146
142	6	131	132
143	7	131	147
144	7	131	148
145	6	132	133
146	7	132	149
147	7	132	150
148	6	133	134
149	7	133	151
150	7	133	152
151	6	134	135
152	7	134	153
153	7	134	154
154	8	135	136
155	7	135	155
156	7	135	156
157	3	136	157
158	1	157	158
159	2	157	159
160	4	159	160
161	5	159	167
162	6	160	161
163	7	160	168
164	7	160	169
165	6	161	162
166	7	161	170
167	7	161	171
168	6	162	163
169	7	162	172
170	7	162	173
171	4	163	164
172	7	163	174
173	7	163	175
174	2	164	165
175	5	164	176
176	1	165	166
177	3	165	177
178	8	177	178
179	6	178	179
180	7	178	189
181	7	178	190
182	6	179	180
183	7	179	191
184	7	179	192
185	6	180	181
186	7	180	193
187	7	180	194
188	6	181	182
189	7	181	195
190	7	181	196
191	6	182	183
192	7	182	197
193	7	182	198
194	6	183	184
195	7	183	199
196	7	183	200
197	6	184	185
198	7	184	201
199	7	184	202
200	6	185	186
201	7	185	203
202	7	185	204
203	6	186	187
204	7	186	205
205	7	186	206
206	8	187	188
207	7	187	207
208	7	187	208
209	3	188	209
210	1	209	210
211	2	209	211
212	4	211	212
213	5	211	219
214	6	212	213
215	7	212	220
216	7	212	221
217	6	213	214
218	7	213	222
219	7	213	223
220	6	214	215
221	7	214	224
222	7	214	225
223	4	215	216
224	7	215	226
225	7	215	227
226	2	216	217
227	5	216	228
228	1	217	218
229	3	217	229
230	8	229	230
231	6	230	231
232	7	230	241
233	7	230	242
234	6	231	232
235	7	231	243
236	7	231	244
237	6	232	233
238	7	232	245
239	7	232	246
240	6	233	234
241	7	233	247
242	7	233	248
243	6	234	235
244	7	234	249
245	7	234	250
246	6	235	236
247	7	235	251
248	7	235	252
249	6	236	237
250	7	236	253
251	7	236	254
252	6	237	238
253	7	237	255
254	7	237	256
255	6	238	239
256	7	238	257
257	7	238	258
258	8	239	240
259	7	239	259
260	7	239	260
261	3	240	261
262	1	261	262
263	2	261	263
264	4	263	264
265	5	263	271
266	6	264	265
267	7	264	272
268	7	264	273
269	6	265	266
270	7	265	274
271	7	265	275
272	6	266	267
273	7	266	276
274	7	266	277
275	4	267	268
276	7	267	278
277	7	267	279
278	2	268	269
279	5	268	280
280	1	269	270
281	3	269	281
282	8	281	282
283	6	282	283
284	7	282	293
285	7	282	294
286	6	283	284
287	7	283	295
288	7	283	296
289	6	284	285
290	7	284	297
291	7	284	298
292	6	285	286
293	7	285	299
294	7	285	300
295	6	286	287
296	7	286	301
297	7	286	302
298	6	287	288
299	7	287	303
300	7	287	304
301	6	288	289
302	7	288	305
303	7	288	306
304	6	289	290
305	7	289	307
306	7	289	308
307	6	290	291
308	7	290	309
309	7	290	310
310	8	291	292
311	7	291	311
312	7	291	312
313	3	292	313
314	1	313	314
315	2	313	315
316	4	315	316
317	5	315	323
318	6	316	317
319	7	316	324
320	7	316	325
321	6	317	318
322	7	317	326
323	7	317	327
324	6	318	319
325	7	318	328
326	7	318	329
327	4	319	320
328	7	319	330
329	7	319	331
330	2	320	321
331	5	320	332
332	1	321	322
333	3	321	333
334	8	333	334
335	6	334	335
336	7	334	345
337	7	334	346
338	6	335	336
339	7	335	347
340	7	335	348
341	6	336	337
342	7	336	349
343	7	336	350
344	6	337	338
345	7	337	351
346	7	337	352
347	6	338	339
348	7	338	353
349	7	338	354
350	6	339	340
351	7	339	355
352	7	339	356
353	6	340	341
354	7	340	357
355	7	340	358
356	6	341	342
357	7	341	359
358	7	341	360
359	6	342	343
360	7	342	361
361	7	342	362
362	8	343	344
363	7	343	363
364	7	343	364
365	3	344	365
366	1	365	366
367	2	365	367
368	4	367	368
369	5	367	375
370	6	368	369
371	7	368	376
372	7	368	377
373	6	369	370
374	7	369	378
375	7	369	379
376	6	370	371
377	7	370	380
378	7	370	381
379	4	371	372
380	7	371	382
381	7	371	383
382	2	372	373
383	5	372	384
384	1	373	374
385	3	373	385
386	8	385	386
387	6	386	387
388	7	386	397
389	7	386	398
390	6	387	388
391	7	387	399
392	7	387	400
393	6	388	389
394	7	388	401
395	7	388	402
396	6	389	390
397	7	389	403
398	7	389	404
399	6	390	391
400	7	390	405
401	7	390	406
402	6	391	392
403	7	391	407
404	7	391	408
405	6	392	393
406	7	392	409
407	7	392	410
408	6	393	394
409	7	393	411
410	7	393	412
411	6	394	395
412	7	394	413
413	7	394	414
414	8	395	396
415	7	395	415
416	7	395	416
417	3	396	450
418	8	417	418
419	6	418	419
420	7	418	429
421	7	418	430