Title

6375 atoms
6250 bonds
11125 angles
18875 dihedrals
1500 impropers

8 atom types
11 bond types
5 angle types
29 dihedral types
2 improper types
-6.675291405 72.18405198 xlo xhi
-6.692752806 73.53732127 ylo yhi
-7.040668826 73.76786308 zlo zhi
0.0 0.0 0.0 xy xz yz

Masses

1	15.99943
2	12.01078
3	1.007947
4	12.01078
5	15.99943
6	1.007947
7	15.99943
8	1.007947


Pair Coeffs

1	0.16846514	3.0251065
2	0.10884061	3.3795318
3	0.016409246	2.5832257
4	0.086879315	3.4806469
5	0.2102061	3.0398122
6	0.015779483	2.6445434
7	0.20947353	2.99716
8	1.2326e-05	0.53453923

Bond Coeffs

1 harmonic	366.7408841747	1.425895053732
2 harmonic	300.03137914615	1.451203938761
3 harmonic	264.62148576755	1.52190126495
4 harmonic	370.04670688625	1.093899492634
5 harmonic	301.15400723785	1.345741232799
6 harmonic	582.698766451	1.225198386222
7 harmonic	329.44145381095	1.523435958334
8 harmonic	279.1350963404	1.454628925034
9 harmonic	329.96998057905	1.427343958716
10 harmonic	543.5267831885	0.9716763312559
11 harmonic	385.7604595587	1.369745182308


Angle Coeffs

1 harmonic	53.20531626545	116.5475862634
2 harmonic	65.09061609600001	110.3538806181
3 harmonic	201.41175231035	127.4691416191
4 harmonic	57.8982893754	126.8062420451
5 harmonic	48.776492647595	115.6030999533


Dihedral Coeffs

1 fourier 1	-0.0309670556842	3	0
2 fourier 1	0.4598191477945	2	0
3 fourier 1	0.1115525666802	3	0
4 fourier 1	0.3432490222662	1	0
5 fourier 1	0.0473758381877	3	0
6 fourier 1	0.457973137376	1	0
7 fourier 1	0.1918272375143	3	0
8 fourier 1	0.9202179876409	1	180
9 fourier 1	1.163809172478	2	180
10 fourier 1	0.1679186987369	1	180
11 fourier 1	2.779853741805	2	180
12 fourier 1	0.02664938770063	3	0
13 fourier 1	0.1911926717192	3	0
14 fourier 1	0.1155372516788	3	0
15 fourier 1	-0.3703352413219	2	0
16 fourier 1	0.4541676554336	1	0
17 fourier 1	0.1489710476446	2	0
18 fourier 1	0.02960027280666	3	180
19 fourier 1	0.09223874044423	3	0
20 fourier 1	0.3159935921949	2	180
21 fourier 1	0.3247796806857	1	180
22 fourier 1	0.1040663847541	3	0
23 fourier 1	0.9974165607242	2	180
24 fourier 1	0.3445382149273	3	0
25 fourier 1	0.1364556373303	1	0
26 fourier 1	0.3026390167484	3	0
27 fourier 1	2.687457892086	2	180
28 fourier 1	2.772607909663	2	180
29 fourier 1	0.09692684957115	1	0


Improper Coeffs

1 3.5	-1	2
2 0.3666666666666667	-1	2


Atoms

1	4	1	-0.15964426	-1.1565759	2.8686639	-0.31394821
2	4	2	0.048083855	-0.73139837	3.2601895	0.9626554
3	4	2	0.14966189	0.017226322	4.5905356	0.88804025
4	4	1	-0.49376878	0.3827457	5.0150694	2.1724135
5	4	3	0.083898885	-0.64457808	5.3581811	0.43530493
6	4	3	0.083898885	0.91952894	4.4878045	0.24202066
7	4	3	0.083043566	-1.6243962	3.378595	1.6128861
8	4	3	0.083043566	-0.079863276	2.4756898	1.4120029
9	5	4	0.76249666	1.199589	4.4372295	2.455668
10	5	5	-0.54793029	1.9764618	4.8729905	3.2894402
11	5	2	-0.20882506	1.4299203	3.0824399	1.8542582
12	5	2	-0.11256857	0.33917543	2.7340472	0.83503497
13	5	2	-0.091732191	0.57943605	1.3488806	0.22359286
14	5	2	-0.2570675	-0.51130883	1.0004878	-0.79563041
15	5	4	0.51818461	-0.28097752	-0.35430174	-1.3970402
16	5	5	-0.6769042	-1.0587827	-0.78991712	-2.2304814
17	5	6	0.1150999	-0.51748872	1.7579215	-1.6086895
18	5	6	0.1150999	-1.5042101	1.006561	-0.29587821
19	5	6	0.076727224	1.5706219	1.3364436	-0.28121499
20	5	6	0.076727224	0.58320718	0.58479029	1.0327936
21	5	6	0.085681511	0.33447193	3.498283	0.026165163
22	5	6	0.085681511	-0.65294277	2.7466297	1.3401737
23	5	6	0.11854435	2.4228215	3.0763667	1.354506
24	5	6	0.11854435	1.435439	2.3260387	2.6680222
25	1	1	-0.15384569	-0.35511083	2.5188212	-0.78480896
26	1	2	0.0180322	-0.50946149	1.1279545	-0.85859742
27	1	2	0.090024268	-1.519771	0.76218222	-1.9457406
28	1	7	-0.68629711	-1.6231919	-0.63045296	-2.0656379
29	1	8	0.38371468	-2.1686614	-0.94161132	-1.2958376
30	1	3	0.079260057	-1.1775699	1.1776726	-2.9171489
31	1	3	0.079260057	-2.5137105	1.2062419	-1.7111314
32	1	3	0.083704939	0.47401882	0.67467149	-1.1065309
33	1	3	0.083704939	-0.83840639	0.72125065	0.12514252
34	2	4	0.51818467	0.57070233	-0.95704899	-1.1013745
35	2	5	-0.67690414	1.5942482	-0.92100186	-1.7660139
36	2	2	-0.25706753	0.49256246	-1.8122021	0.12755726
37	2	2	-0.091732191	0.58879399	-3.2992595	-0.23139943
38	2	2	-0.11004336	0.47845351	-4.1752097	1.0247464
39	2	2	-0.2188345	0.63593899	-5.6684032	0.70811342
40	2	4	0.82534046	-0.52173585	-6.1938676	-0.083313856
41	2	5	-0.54905295	-1.6092005	-6.4663489	0.49315949
42	2	7	-0.66390168	-0.40773916	-6.3514778	-1.4606932
43	2	8	0.39629746	-1.18646	-6.6927528	-2.0118349
44	2	6	0.11958056	1.5818366	-5.8415996	0.14945011
45	2	6	0.11958056	0.70375735	-6.2346337	1.6621017
46	2	6	0.085681511	1.2801933	-3.8862064	1.739301
47	2	6	0.085681511	-0.49993861	-4.0011501	1.5247125
48	2	6	0.076727224	1.5621991	-3.4961926	-0.73233143
49	2	6	0.076727224	-0.23152916	-3.5545289	-0.93760655
50	2	6	0.1150999	-0.47472142	-1.6150618	0.63960177
51	2	6	0.1150999	1.3176254	-1.5313196	0.81771755
52	4	1	-0.15964426	-0.22188892	-1.0522664	17.094193
53	4	2	0.048083855	-0.95938669	-2.1802987	16.710233
54	4	2	0.14966189	-0.35308559	-3.4437492	17.320085
55	4	1	-0.49376878	-1.1298629	-4.5627697	16.991667
56	4	3	0.083898885	-0.32771294	-3.3410901	18.425097
57	4	3	0.083898885	0.69340717	-3.5792349	16.961558
58	4	3	0.083043566	-2.0025162	-2.0624798	17.073915
59	4	3	0.083043566	-0.98944471	-2.2643694	15.599432
60	5	4	0.76249666	-0.91301477	-4.795433	16.001612
61	5	5	-0.54793029	-1.0835495	-5.93743	15.60746
62	5	2	-0.20882506	-0.39723717	-3.7480196	15.059752
63	5	2	-0.11256857	-0.25895124	-2.3910426	15.759329
64	5	2	-0.091732191	0.26847148	-1.3245869	14.792494
65	5	2	-0.2570675	0.40675742	0.032390137	15.492071
66	5	4	0.51818461	0.92253501	1.0798035	14.550212
67	5	5	-0.6769042	1.0922604	2.2220802	14.94488
68	5	6	0.1150999	1.110191	-0.059073353	16.347422
69	5	6	0.1150999	-0.58411193	0.35508192	15.878969
70	5	6	0.076727224	1.2618793	-1.6396503	14.403507
71	5	6	0.076727224	-0.43381609	-1.2254926	13.934807
72	5	6	0.085681511	0.44252706	-2.4898572	16.617533
73	5	6	0.085681511	-1.2531684	-2.0756995	16.148833
74	5	6	0.11854435	0.59363218	-4.0707114	14.672854
75	5	6	0.11854435	-1.1015504	-3.6571956	14.205305
76	1	1	-0.15384569	0.60582605	-1.0543577	16.545258
77	1	2	0.0180322	0.46781501	-0.020962154	15.608868
78	1	2	0.090024268	0.70702761	1.334382	16.27386
79	1	7	-0.68629711	0.63609912	2.3622383	15.323605
80	1	8	0.38371468	-0.32788734	2.5014944	15.127935
81	1	3	0.079260057	1.7188887	1.3432245	16.731492
82	1	3	0.079260057	-0.03944905	1.5019799	17.083076
83	1	3	0.083704939	1.2180122	-0.16996192	14.803155
84	1	3	0.083704939	-0.54533882	-0.049241757	15.146184
85	2	4	0.51818467	1.1483467	0.83722728	13.517619
86	2	5	-0.67690414	2.2924689	0.55039879	13.202334
87	2	2	-0.25706753	0.054837078	0.8367288	12.491996
88	2	2	-0.091732191	0.28688607	1.9286492	11.441609
89	2	2	-0.11004336	-0.84914153	1.9469153	10.408907
90	2	2	-0.2188345	-0.61487683	2.9867413	9.3050201
91	2	4	0.82534046	-0.71194727	4.3859708	9.8298201
92	2	5	-0.54905295	-1.8415393	4.9073453	10.033136
93	2	7	-0.66390168	0.44515069	5.1000448	10.123474
94	2	8	0.39629746	0.39578791	6.0425234	10.49216
95	2	6	0.11958056	0.38245174	2.8292133	8.8388177
96	2	6	0.11958056	-1.3797919	2.8485785	8.5105857
97	2	6	0.085681511	-0.92063231	0.94499821	9.931467
98	2	6	0.085681511	-1.8188527	2.1514518	10.914218
99	2	6	0.076727224	1.2526701	1.742397	10.922182
100	2	6	0.076727224	0.34317353	2.9151476	11.951976
101	2	6	0.1150999	-0.91616569	1.013857	13.004316
102	2	6	0.1150999	0.016135767	-0.16133993	12.00383
103	4	1	-0.15964426	-1.7170078	0.36698059	30.920032
104	4	2	0.048083855	-1.0153434	-0.62295783	31.621084
105	4	2	0.14966189	-0.58721479	-0.10016842	32.991932
106	4	1	-0.49376878	0.054649547	-1.1116001	33.718887
107	4	3	0.083898885	-1.4856069	0.22695419	33.55595
108	4	3	0.083898885	0.086240338	0.77996572	32.874173
109	4	3	0.083043566	-1.6817962	-1.5015198	31.756119
110	4	3	0.083043566	-0.12439111	-0.95292005	31.038692
111	5	4	0.76249666	1.0123456	-1.2003458	33.32353
112	5	5	-0.54793029	1.9041484	-1.6558904	34.020496
113	5	2	-0.20882506	1.3058249	-0.77773398	31.914463
114	5	2	-0.11256857	0.048783235	-0.23785286	31.222876
115	5	2	-0.091732191	0.35432564	0.19256909	29.783552
116	5	2	-0.2570675	-0.90271603	0.73245022	29.091964
117	5	4	0.51818461	-0.60923676	1.155062	27.682897
118	5	5	-0.6769042	-1.5018424	1.6100172	26.986021
119	5	6	0.1150999	-1.2916787	1.607535	29.655652
120	5	6	0.1150999	-1.6860197	-0.056058711	29.073771
121	5	6	0.076727224	1.1357288	0.984231	29.794299
122	5	6	0.076727224	0.74114756	-0.68075087	29.212294
123	5	6	0.085681511	-0.33884152	0.63487768	31.794223
124	5	6	0.085681511	-0.73342276	-1.0301042	31.212217
125	5	6	0.11854435	2.0891286	0.010774943	31.932657
126	5	6	0.11854435	1.694182	-1.6535289	31.351838
127	1	1	-0.15384569	-1.0396094	1.0120944	30.586257
128	1	2	0.0180322	-0.94363862	0.81180196	29.20262
129	1	2	0.090024268	-2.1421482	1.4384796	28.490409
130	1	7	-0.68629711	-2.0117756	1.2974907	27.102018
131	1	8	0.38371468	-2.2364005	0.3531512	26.890558
132	1	3	0.079260057	-2.1871549	2.5209311	28.734624
133	1	3	0.079260057	-3.0874012	0.96570003	28.841297
134	1	3	0.083704939	-0.010379455	1.2921435	28.838657
135	1	3	0.083704939	-0.88422969	-0.27644316	28.971211
136	2	4	0.51818467	0.38945052	1.0621815	27.270492
137	2	5	-0.67690414	1.1447736	2.0210153	27.299055
138	2	2	-0.25706753	0.84079621	-0.24344211	26.687998
139	2	2	-0.091732191	1.1052974	-0.11135967	25.183988
140	2	2	-0.11004336	1.5384528	-1.4561182	24.582851
141	2	2	-0.2188345	1.8739863	-1.3444941	23.089652
142	2	4	0.82534046	0.65499056	-1.0666358	22.265319
143	2	5	-0.54905295	-0.14165867	-2.0012997	21.980889
144	2	7	-0.66390168	0.38436705	0.22975641	21.839713
145	2	8	0.39629746	-0.44345084	0.43608475	21.293107
146	2	6	0.11958056	2.6273792	-0.54267261	22.927463
147	2	6	0.11958056	2.3262658	-2.300794	22.748706
148	2	6	0.085681511	2.4459871	-1.8155053	25.11588
149	2	6	0.085681511	0.73711631	-2.2136745	24.729419
150	2	6	0.076727224	1.9059921	0.64187385	25.0144
151	2	6	0.076727224	0.17646414	0.23949557	24.682999
152	2	6	0.1150999	0.049079521	-1.0050076	26.860898
153	2	6	0.1150999	1.7644945	-0.57376451	27.211078
154	4	1	-0.15964426	2.1738191	1.9178739	43.654809
155	4	2	0.048083855	1.9304794	1.5370387	44.981284
156	4	2	0.14966189	3.2428891	1.1891372	45.682976
157	4	1	-0.49376878	3.0062417	0.87412106	47.027673
158	4	3	0.083898885	3.9251516	2.063622	45.63794
159	4	3	0.083898885	3.7401915	0.33596378	45.16642
160	4	3	0.083043566	1.4460875	2.3853273	45.510468
161	4	3	0.083043566	1.2336639	0.66798779	45.013683
162	5	4	0.76249666	2.607722	-0.086254353	47.042711
163	5	5	-0.54793029	2.7268893	-0.76442352	48.049926
164	5	2	-0.20882506	1.8920081	-0.64165957	45.847103
165	5	2	-0.11256857	1.8576075	0.3733538	44.698851
166	5	2	-0.091732191	1.1252942	-0.19929389	43.479808
167	5	2	-0.2570675	1.0908936	0.81571948	42.331556
168	5	4	0.51818461	0.37517968	0.26031426	41.135948
169	5	5	-0.6769042	0.25570772	0.9393971	40.129003
170	5	6	0.1150999	2.1290595	1.0811067	42.037294
171	5	6	0.1150999	0.5685158	1.7384747	42.665152
172	5	6	0.076727224	1.6447414	-1.1218335	43.138443
173	5	6	0.076727224	0.083146155	-0.46395626	43.767098
174	5	6	0.085681511	2.8994508	0.63892984	44.41183
175	5	6	0.085681511	1.3378556	1.2968071	45.040485
176	5	6	0.11854435	2.4143859	-1.5644148	45.513507
177	5	6	0.11854435	0.85412859	-0.90617314	46.14244
178	1	1	-0.15384569	2.3525349	1.082481	43.148227
179	1	2	0.0180322	1.2274633	0.85295198	42.344915
180	1	2	0.090024268	1.2361989	1.7903016	41.137565
181	1	7	-0.68629711	0.1475315	1.5143318	40.299026
182	1	8	0.38371468	-0.65423982	1.9035911	40.737876
183	1	3	0.079260057	2.1743541	1.6374527	40.563222
184	1	3	0.079260057	1.2068204	2.851154	41.475019
185	1	3	0.083704939	1.2536333	-0.19956032	41.990369
186	1	3	0.083704939	0.29343076	0.9947197	42.935544
187	2	4	0.51818467	-0.040723308	-0.7411124	41.15177
188	2	5	-0.67690414	0.61066801	-1.6712921	40.703277
189	2	2	-0.25706753	-1.3992772	-0.97868992	41.739609
190	2	2	-0.091732191	-2.3851539	-1.4570827	40.667864
191	2	2	-0.11004336	-3.7833964	-1.6711988	41.264888
192	2	2	-0.2188345	-4.7802345	-2.2127157	40.231564
193	2	4	0.82534046	-5.0953876	-1.1965234	39.177661
194	2	5	-0.54905295	-5.9082135	-0.26444014	39.42196
195	2	7	-0.66390168	-4.4667415	-1.2623353	37.938515
196	2	8	0.39629746	-4.6590027	-0.57425087	37.220039
197	2	6	0.11958056	-4.3742468	-3.1325917	39.756353
198	2	6	0.11958056	-5.7218836	-2.4935781	40.750913
199	2	6	0.085681511	-3.7132981	-2.4060416	42.096748
200	2	6	0.085681511	-4.166407	-0.71620743	41.687746
201	2	6	0.076727224	-2.0214272	-2.4135151	40.231775
202	2	6	0.076727224	-2.4373563	-0.69566565	39.858951
203	2	6	0.1150999	-1.7670629	-0.02877427	42.185799
204	2	6	0.1150999	-1.3166829	-1.7366027	42.548739
205	4	1	-0.15964426	-1.3996674	0.28208576	53.947049
206	4	2	0.048083855	-0.19074831	0.50200667	53.273303
207	4	2	0.14966189	-0.089875314	-0.41132168	52.05204
208	4	1	-0.49376878	1.0873642	-0.14339592	51.340864
209	4	3	0.083898885	-0.95755897	-0.22732644	51.384578
210	4	3	0.083898885	-0.11751322	-1.4796869	52.368073
211	4	3	0.083043566	-0.15747098	1.5617945	52.941629
212	4	3	0.083043566	0.67166791	0.3280369	53.957279
213	5	4	0.76249666	1.8646413	-0.57908836	51.87694
214	5	5	-0.54793029	2.8902902	-0.88840226	51.293018
215	5	2	-0.20882506	1.7385242	-0.8283147	53.350772
216	5	2	-0.11256857	0.37549439	-0.36567769	53.878062
217	5	2	-0.091732191	0.25195581	-0.62274071	55.384359
218	5	2	-0.2570675	-1.111074	-0.1601037	55.911649
219	5	4	0.51818461	-1.2371911	-0.40933004	57.385481
220	5	5	-0.6769042	-2.2630957	-0.099090812	57.969122
221	5	6	0.1150999	-1.9206952	-0.70879049	55.38414
222	5	6	0.1150999	-1.2351214	0.92785311	55.720326
223	5	6	0.076727224	0.37206901	-1.7106519	55.582997
224	5	6	0.076727224	1.0583083	-0.072761853	55.919123
225	5	6	0.085681511	-0.43111377	-0.91473122	53.343018
226	5	6	0.085681511	0.25512548	0.72315882	53.679144
227	5	6	0.11854435	1.8625716	-1.9162715	53.542094
228	5	6	0.11854435	2.5481831	-0.27890423	53.877066
229	1	1	-0.15384569	-1.2926915	-0.56666228	54.451657
230	1	2	0.0180322	-1.1849667	-0.217275	55.80447
231	1	2	0.090024268	-2.5574778	0.14638524	56.370473
232	1	7	-0.68629711	-2.4599815	0.42981531	57.739657
233	1	8	0.38371468	-2.0635593	1.3377286	57.813764
234	1	3	0.079260057	-3.2481258	-0.71254825	56.234067
235	1	3	0.079260057	-2.97956	1.0192764	55.822701
236	1	3	0.083704939	-0.7778139	-1.0864496	56.363873
237	1	3	0.083704939	-0.47862216	0.63516593	55.930084
238	2	4	0.51818467	-0.42644465	-0.86338654	57.944591
239	2	5	-0.67690414	-0.42925888	-2.0688176	58.138547
240	2	2	-0.25706753	0.69781964	-0.014075591	58.456808
241	2	2	-0.091732191	0.72304343	-0.0027062193	59.98935
242	2	2	-0.11004336	1.8561422	0.89137215	60.512874
243	2	2	-0.2188345	1.9502819	0.87392248	62.044382
244	2	4	0.82534046	0.7707785	1.541511	62.68139
245	2	5	-0.54905295	0.70937327	2.7995222	62.734154
246	2	7	-0.66390168	-0.27323616	0.77376831	63.186973
247	2	8	0.39629746	-1.084304	1.2110162	63.608417
248	2	6	0.11958056	2.0307611	-0.17360078	62.409132
249	2	6	0.11958056	2.8745102	1.4071649	62.355452
250	2	6	0.085681511	2.8235739	0.52761098	60.102201
251	2	6	0.085681511	1.7096994	1.9361781	60.1601
252	2	6	0.076727224	0.87014387	-1.0395817	60.364162
253	2	6	0.076727224	-0.25361814	0.37468871	60.364218
254	2	6	0.1150999	0.56312385	1.0232716	58.07937
255	2	6	0.1150999	1.6591901	-0.40835869	58.06152
256	4	1	-0.15964426	-1.2065391	16.444416	-1.751961
257	4	2	0.048083855	-0.259192	16.264535	-2.7687998
258	4	2	0.14966189	-0.95193734	16.158076	-4.1269594
259	4	1	-0.49376878	-0.00096915665	16.046439	-5.1500159
260	4	3	0.083898885	-1.5563995	17.072464	-4.3023278
261	4	3	0.083898885	-1.6399405	15.281413	-4.1395364
262	4	3	0.083043566	0.42521076	17.139649	-2.774516
263	4	3	0.083043566	0.35022069	15.352083	-2.5741248
264	5	4	0.76249666	0.35255836	15.068881	-5.1223917
265	5	5	-0.54793029	0.82546682	14.578146	-6.1343855
266	5	2	-0.20882506	0.28818444	14.26227	-3.8592863
267	5	2	-0.11256857	-0.33876975	15.068649	-2.7162208
268	5	2	-0.091732191	-0.40217621	14.239747	-1.4281311
269	5	2	-0.2570675	-1.0291304	15.046127	-0.28506552
270	5	4	0.51818461	-1.0935043	14.239515	0.97803982
271	5	5	-0.6769042	-1.5660236	14.731164	1.990153
272	5	6	0.1150999	-2.0588267	15.354248	-0.56719282
273	5	6	0.1150999	-0.42338232	15.958959	-0.096787326
274	5	6	0.076727224	-1.0098277	13.325589	-1.6084332
275	5	6	0.076727224	0.62692613	13.930833	-1.1380026
276	5	6	0.085681511	-1.3674829	15.378476	-3.0062299
277	5	6	0.085681511	0.26927094	15.983721	-2.5357993
278	5	6	0.11854435	-0.31756363	13.349437	-4.0475645
279	5	6	0.11854435	1.3182292	13.955208	-3.578028
280	1	1	-0.15384569	-1.6248341	15.557545	-1.5940495
281	1	2	0.0180322	-1.1355856	15.097442	-0.36412291
282	1	2	0.090024268	-1.8301323	15.821851	0.78879997
283	1	7	-0.68629711	-1.3900459	15.313725	2.0186927
284	1	8	0.38371468	-0.48572834	15.694002	2.1753705
285	1	3	0.079260057	-2.9267394	15.664216	0.7115212
286	1	3	0.079260057	-1.6334692	16.916306	0.72848908
287	1	3	0.083704939	-1.3392419	14.008093	-0.28657776
288	1	3	0.083704939	-0.033152907	15.24723	-0.30443658
289	2	4	0.51818467	-0.72449711	13.220162	1.0069216
290	2	5	-0.67690414	-1.5012794	12.293142	0.83978567
291	2	2	-0.25706753	0.73439694	12.957826	1.2315859
292	2	2	-0.091732191	0.96216205	12.22224	2.5569106
293	2	2	-0.11004336	2.4587667	11.980799	2.8003176
294	2	2	-0.2188345	2.7179998	11.188472	4.0886114
295	2	4	0.82534046	2.3766514	11.985593	5.3095784
296	2	5	-0.54905295	3.173524	12.866295	5.7320787
297	2	7	-0.66390168	1.1649058	11.776437	5.9599141
298	2	8	0.39629746	0.91352241	12.317335	6.7789794
299	2	6	0.11958056	2.1298382	10.244641	4.0801658
300	2	6	0.11958056	3.7933382	10.91078	4.1315528
301	2	6	0.085681511	2.8754665	11.401249	1.9474512
302	2	6	0.085681511	2.9981381	12.952689	2.8452907
303	2	6	0.076727224	0.43143914	11.245001	2.5330463
304	2	6	0.076727224	0.5430071	12.833286	3.3862191
305	2	6	0.1150999	1.2742195	13.929941	1.2482439
306	2	6	0.1150999	1.1283965	12.353053	0.38603355
307	4	1	-0.15964426	0.23194635	11.238126	13.190455
308	4	2	0.048083855	1.2348136	11.550257	12.262761
309	4	2	0.14966189	2.4096436	10.583189	12.40552
310	4	1	-0.49376878	3.3819575	10.853001	11.433278
311	4	3	0.083898885	2.0469709	9.5433705	12.265951
312	4	3	0.083898885	2.8497249	10.661511	13.426422
313	4	3	0.083043566	0.81089229	11.46279	11.239577
314	4	3	0.083043566	1.5803277	12.600308	12.403706
315	5	4	0.76249666	3.8912105	11.702756	11.749417
316	5	5	-0.54793029	5.0311592	11.893394	11.358561
317	5	2	-0.20882506	3.2423017	12.689916	12.673881
318	5	2	-0.11256857	1.8172665	12.257376	13.03734
319	5	2	-0.091732191	1.1589719	13.269461	13.982119
320	5	2	-0.2570675	-0.26606337	12.836921	14.345578
321	5	4	0.51818461	-0.91497218	13.824081	15.270042
322	5	5	-0.6769042	-2.0554852	13.633188	15.660113
323	5	6	0.1150999	-0.23879058	11.84355	14.842849
324	5	6	0.1150999	-0.87820221	12.755654	13.421281
325	5	6	0.076727224	1.7649538	13.353642	14.911169
326	5	6	0.076727224	1.1253024	14.266298	13.488322
327	5	6	0.085681511	1.8503716	11.260284	13.530352
328	5	6	0.085681511	1.2107201	12.17294	12.107505
329	5	6	0.11854435	3.8544406	12.771183	13.598178
330	5	6	0.11854435	3.2152235	13.682499	12.175453
331	1	1	-0.15384569	0.54576746	11.573847	14.07094
332	1	2	0.0180322	-0.23119441	12.701192	14.369611
333	1	2	0.090024268	-1.624596	12.278457	14.8345
334	1	7	-0.68629711	-2.3785581	13.402741	15.19786
335	1	8	0.38371468	-2.6686069	13.83518	14.3518
336	1	3	0.079260057	-1.5285821	11.614305	15.719403
337	1	3	0.079260057	-2.1413566	11.708481	14.029372
338	1	3	0.083704939	0.26791882	13.270631	15.182503
339	1	3	0.083704939	-0.30786764	13.366643	13.4793
340	2	4	0.51818467	-0.38399381	14.710441	15.59945
341	2	5	-0.67690414	0.20947932	14.695695	16.666344
342	2	2	-0.25706753	-0.3660592	15.936609	14.736979
343	2	2	-0.091732191	-1.0911722	17.100333	15.422112
344	2	2	-0.11004336	-1.0983458	18.346571	14.525337
345	2	2	-0.2188345	-1.7606056	19.550613	15.208256
346	2	4	0.82534046	-3.2331078	19.346438	15.389173
347	2	5	-0.54905295	-4.0177741	19.510725	14.416313
348	2	7	-0.66390168	-3.7325899	18.944166	16.623557
349	2	8	0.39629746	-4.7247204	18.788511	16.758022
350	2	6	0.11958056	-1.2837975	19.738477	16.195264
351	2	6	0.11958056	-1.5988663	20.454753	14.582412
352	2	6	0.085681511	-0.049212561	18.621705	14.279332
353	2	6	0.085681511	-1.6232815	18.124361	13.570047
354	2	6	0.076727224	-0.58090295	17.340487	16.380853
355	2	6	0.076727224	-2.1370576	16.794207	15.643993
356	2	6	0.1150999	-0.86707545	15.702628	13.772133
357	2	6	0.1150999	0.68908586	16.215301	14.524977
358	4	1	-0.15964426	3.0619526	14.098066	28.886948
359	4	2	0.048083855	3.0768136	12.703852	29.027418
360	4	2	0.14966189	4.1822901	12.095204	28.165271
361	4	1	-0.49376878	4.2409079	10.708537	28.358061
362	4	3	0.083898885	5.1585268	12.535793	28.456952
363	4	3	0.083898885	4.0044799	12.330229	27.090473
364	4	3	0.083043566	3.2665062	12.457019	30.093886
365	4	3	0.083043566	2.0876313	12.275069	28.745435
366	5	4	0.76249666	3.4432526	10.300649	27.830104
367	5	5	-0.54793029	3.5075968	9.1409678	27.456481
368	5	2	-0.20882506	2.2225865	11.117931	27.526418
369	5	2	-0.11256857	2.3521583	12.539362	28.08558
370	5	2	-0.091732191	1.1023113	13.370064	27.772386
371	5	2	-0.2570675	1.2318831	14.791496	28.331548
372	5	4	0.51818461	0.011217015	15.608778	28.027862
373	5	5	-0.6769042	-0.052837869	16.768499	28.402442
374	5	6	0.1150999	2.1181399	15.289372	27.882686
375	5	6	0.1150999	1.3685098	14.747503	29.433836
376	5	6	0.076727224	0.96105542	13.420954	26.670165
377	5	6	0.076727224	0.21106659	12.878397	28.222498
378	5	6	0.085681511	3.2436924	13.031069	27.636425
379	5	6	0.085681511	2.4937035	12.488512	29.188758
380	5	6	0.11854435	2.0859598	11.161924	26.42413
381	5	6	0.11854435	1.3373235	10.619409	27.976052
382	1	1	-0.15384569	2.6372502	14.290147	28.00992
383	1	2	0.0180322	1.3654163	14.809648	28.286212
384	1	2	0.090024268	1.4734075	16.263378	28.745995
385	1	7	-0.68629711	0.19732083	16.803425	28.956843
386	1	8	0.38371468	-0.1268917	16.435896	29.820995
387	1	3	0.079260057	1.9851024	16.858064	27.959938
388	1	3	0.079260057	2.0804574	16.327282	29.67742
389	1	3	0.083704939	0.75473227	14.764141	27.359301
390	1	3	0.083704939	0.85648761	14.196446	29.064885
391	2	4	0.51818467	-0.82077438	15.18328	27.477569
392	2	5	-0.67690414	-0.89115137	15.347148	26.269726
393	2	2	-0.25706753	-1.8643837	14.383436	28.197843
394	2	2	-0.091732191	-3.2285582	15.079703	28.137101
395	2	2	-0.11004336	-4.2899294	14.274767	28.900603
396	2	2	-0.2188345	-5.6828078	14.911508	28.805022
397	2	4	0.82534046	-5.7520814	16.210749	29.546543
398	2	5	-0.54905295	-5.8738079	16.216172	30.801254
399	2	7	-0.66390168	-5.6500329	17.412731	28.853842
400	2	8	0.39629746	-5.6812446	18.299626	29.342795
401	2	6	0.11958056	-5.9554862	15.072911	27.738992
402	2	6	0.11958056	-6.4301176	14.211984	29.238039
403	2	6	0.085681511	-4.3468588	13.250859	28.470171
404	2	6	0.085681511	-3.9969683	14.177264	29.969331
405	2	6	0.076727224	-3.5419134	15.186505	27.075199
406	2	6	0.076727224	-3.136893	16.094145	28.583559
407	2	6	0.1150999	-1.5545087	14.264443	29.259215
408	2	6	0.1150999	-1.9295506	13.37387	27.736892
409	4	1	-0.15964426	0.48532787	16.159802	44.876562
410	4	2	0.048083855	-0.63001123	15.7033	45.591691
411	4	2	0.14966189	-0.24413306	15.397492	47.038552
412	4	1	-0.49376878	-1.3732762	15.006145	47.770215
413	4	3	0.083898885	0.18203945	16.310409	47.504594
414	4	3	0.083898885	0.53312666	14.599352	47.068283
415	4	3	0.083043566	-1.4075987	16.496702	45.580056
416	4	3	0.083043566	-1.0569899	14.795576	45.106327
417	5	4	0.76249666	-1.5809626	14.025085	47.494981
418	5	5	-0.54793029	-2.1958193	13.307761	48.266986
419	5	2	-0.20882506	-1.1360751	13.487318	46.16717
420	5	2	-0.11256857	-0.38488807	14.552061	45.35973
421	5	2	-0.091732191	0.067462747	13.997269	44.004054
422	5	2	-0.2570675	0.81864978	15.062012	43.196615
423	5	4	0.51818461	1.2635372	14.524245	41.868804
424	5	5	-0.6769042	1.8779242	15.242451	41.096745
425	5	6	0.1150999	1.7119565	15.399499	43.764871
426	5	6	0.1150999	0.154708	15.936799	43.024654
427	5	6	0.076727224	0.73516762	13.122899	44.168621
428	5	6	0.076727224	-0.82341123	13.66061	43.428157
429	5	6	0.085681511	0.50551616	14.889602	45.935574
430	5	6	0.085681511	-1.0530627	15.427312	45.195109
431	5	6	0.11854435	-0.47213332	12.612531	46.33913
432	5	6	0.11854435	-2.030048	13.150668	45.599839
433	1	1	-0.15384569	1.0405504	15.360854	44.67692
434	1	2	0.0180322	0.89751492	15.106253	43.306337
435	1	2	0.090024268	1.7269514	16.098794	42.491909
436	1	7	-0.68629711	1.6377303	15.801614	41.125078
437	1	8	0.38371468	0.74795625	16.12353	40.822388
438	1	3	0.079260057	2.7908823	16.026801	42.802128
439	1	3	0.079260057	1.3802186	17.139073	42.686179
440	1	3	0.083704939	1.2541193	14.07492	43.09812
441	1	3	0.083704939	-0.17487833	15.166657	43.010227
442	2	4	0.51818467	1.0466354	13.501224	41.581641
443	2	5	-0.67690414	1.8824323	12.631797	41.771989
444	2	2	-0.25706753	-0.28022947	13.159379	40.973169
445	2	2	-0.091732191	-0.11344935	12.677219	39.527778
446	2	2	-0.11004336	-1.4754009	12.356086	38.895854
447	2	2	-0.2188345	-1.3397326	11.808531	37.468807
448	2	4	0.82534046	-0.84638069	12.854055	36.51688
449	2	5	-0.54905295	-1.639535	13.72591	36.069753
450	2	7	-0.66390168	0.4951769	12.882839	36.150268
451	2	8	0.39629746	0.84697909	13.592214	35.518085
452	2	6	0.11958056	-0.64929743	10.936732	37.459387
453	2	6	0.11958056	-2.3336043	11.450409	37.123441
454	2	6	0.085681511	-1.9893841	11.587777	39.514255
455	2	6	0.085681511	-2.1143297	13.266691	38.886748
456	2	6	0.076727224	0.52244761	11.764712	39.513729
457	2	6	0.076727224	0.39361583	13.471957	38.937779
458	2	6	0.1150999	-0.92583313	14.064679	40.991068
459	2	6	0.1150999	-0.76735762	12.36985	41.585782
460	4	1	-0.15964426	-1.8051272	12.19794	55.130876
461	4	2	0.048083855	-2.4634469	13.227999	54.445764
462	4	2	0.14966189	-2.4828952	12.939587	52.945008
463	4	1	-0.49376878	-3.1999598	13.935156	52.26817
464	4	3	0.083898885	-2.9776924	11.962083	52.766414
465	4	3	0.083898885	-1.4417467	12.876653	52.55246
466	4	3	0.083043566	-3.5075962	13.291762	54.819864
467	4	3	0.083043566	-1.9662936	14.205391	54.644243
468	5	4	0.76249666	-2.5790174	14.767845	52.218941
469	5	5	-0.54793029	-2.751211	15.587096	51.331375
470	5	2	-0.20882506	-1.4821465	14.970712	53.221897
471	5	2	-0.11256857	-1.444622	13.828182	54.243237
472	5	2	-0.091732191	-0.32206485	14.040445	55.26553
473	5	2	-0.2570675	-0.28454029	12.897915	56.286869
474	5	4	0.51818461	0.81233063	13.100781	57.289825
475	5	5	-0.6769042	0.98363635	12.281314	58.177797
476	5	6	0.1150999	-0.11660457	11.933356	55.761291
477	5	6	0.1150999	-1.2562689	12.846084	56.824177
478	5	6	0.076727224	0.65429882	14.090221	54.734803
479	5	6	0.076727224	-0.48643358	15.003708	55.798222
480	5	6	0.085681511	-1.2811411	12.864701	53.710951
481	5	6	0.085681511	-2.4218735	13.778188	54.77437
482	5	6	0.11854435	-0.51041788	15.022542	52.68459
483	5	6	0.11854435	-1.6513935	15.935094	53.746976
484	1	1	-0.15384569	-0.83286985	12.332771	54.979277
485	1	2	0.0180322	-0.29926931	12.795096	56.189775
486	1	2	0.090024268	-0.15914839	11.642297	57.183664
487	1	7	-0.68629711	0.43736962	12.09176	58.369688
488	1	8	0.38371468	-0.26381116	12.586902	58.869817
489	1	3	0.079260057	0.48406556	10.853317	56.739643
490	1	3	0.079260057	-1.1567636	11.195427	57.396306
491	1	3	0.083704939	0.70336995	13.230704	55.991962
492	1	3	0.083704939	-0.9448437	13.595989	56.617748
493	2	4	0.51818467	1.4596658	13.969356	57.238676
494	2	5	-0.67690414	2.5342831	13.887053	56.664991
495	2	2	-0.25706753	1.0238939	15.265474	57.853369
496	2	2	-0.091732191	1.9397677	15.655634	59.018873
497	2	2	-0.11004336	1.4747248	16.967643	59.666743
498	2	2	-0.2188345	2.4085039	17.421102	60.796838
499	2	4	0.82534046	2.3380195	16.503278	61.978072
500	2	5	-0.54905295	1.3748623	16.587749	62.786985
501	2	7	-0.66390168	3.319261	15.535314	62.165745
502	2	8	0.39629746	3.2780853	14.897966	62.952335
503	2	6	0.11958056	3.4557235	17.476338	60.426563
504	2	6	0.11958056	2.1147437	18.443228	61.119752
505	2	6	0.085681511	1.454181	17.766215	58.892947
506	2	6	0.085681511	0.44107047	16.851274	60.061117
507	2	6	0.076727224	2.9804063	15.778709	58.645836
508	2	6	0.076727224	1.9284233	14.841054	59.77594
509	2	6	0.1150999	-0.019491182	15.153802	58.221566
510	2	6	0.1150999	1.0372698	16.058669	57.074519
511	4	1	-0.15964426	0.85624556	28.823996	-2.9515672
512	4	2	0.048083855	2.024225	29.504758	-2.5825531
513	4	2	0.14966189	3.2291936	28.935903	-3.3310726
514	4	1	-0.49376878	4.3852992	29.660989	-3.0130823
515	4	3	0.083898885	3.0510844	29.013095	-4.4240285
516	4	3	0.083898885	3.3649548	27.858991	-3.0783413
517	4	3	0.083043566	1.9056582	30.578502	-2.8419408
518	4	3	0.083043566	2.1842937	29.43201	-1.4821274
519	5	4	0.76249666	4.6797631	29.350964	-2.0651685
520	5	5	-0.54793029	5.8494945	29.466044	-1.7379374
521	5	2	-0.20882506	3.6873809	28.76874	-1.1026753
522	5	2	-0.11256857	2.2831864	28.717157	-1.7154518
523	5	2	-0.091732191	1.2732448	28.121374	-0.72786254
524	5	2	-0.2570675	-0.13094967	28.069791	-1.3406391
525	5	4	0.51818461	-1.1233319	27.487566	-0.37814583
526	5	5	-0.6769042	-2.293359	27.373344	-0.70579798
527	5	6	0.1150999	-0.11385103	27.44588	-2.2600148
528	5	6	0.1150999	-0.45662714	29.096985	-1.613492
529	5	6	0.076727224	1.591398	27.091587	-0.45262982
530	5	6	0.076727224	1.2486678	28.744056	0.19426357
531	5	6	0.085681511	2.3074677	28.095332	-2.6379989
532	5	6	0.085681511	1.9647375	29.747802	-1.9911055
533	5	6	0.11854435	4.0130584	27.741546	-0.82982233
534	5	6	0.11854435	3.6708786	29.393599	-0.18416335
535	1	1	-0.15384569	0.87686911	27.94975	-2.4807016
536	1	2	0.0180322	-0.087062548	28.018769	-1.4658858
537	1	2	0.090024268	-1.4895677	27.863514	-2.0534825
538	1	7	-0.68629711	-2.4485543	27.864384	-1.0313044
539	1	8	0.38371468	-2.5522649	28.80867	-0.74058491
540	1	3	0.079260057	-1.5524741	26.897883	-2.5984306
541	1	3	0.079260057	-1.6948145	28.683328	-2.7786893
542	1	3	0.083704939	0.099311406	27.195876	-0.74319539
543	1	3	0.083704939	-0.0043960991	28.984907	-0.91715832
544	2	4	0.51818467	-0.81629158	27.164575	0.61053183
545	2	5	-0.67690414	-0.53473342	25.991907	0.80097131