Title

16000 atoms
15875 bonds
30000 angles
54500 dihedrals
2250 impropers

11 atom types
14 bond types
9 angle types
35 dihedral types
3 improper types
-11.30858966 136.0295375 xlo xhi
-12.16473935 137.3080509 ylo yhi
-13.45575841 137.212462 zlo zhi
0.0 0.0 0.0 xy xz yz

Masses

1	12.01078
2	15.99943
3	14.00672
4	12.01078
5	1.007947
6	1.007947
7	1.007947
8	15.99943
9	12.01078
10	15.99943
11	1.007947


Pair Coeffs

1	0.086879315	3.4806469
2	0.2102061	3.0398122
3	0.16769152	3.206876
4	0.10884061	3.3795318
5	0.014090815	1.1034277
6	0.016409246	2.5832257
7	0.015779483	2.6445434
8	0.16846514	3.0251065
9	0.21	3.3996695
10	0.20947353	2.99716
11	1.2326e-05	0.53453923

Bond Coeffs

1 harmonic	582.698766451	1.225198386222
2 harmonic	492.76746816345	1.381897776683
3 harmonic	279.1350963404	1.454628925034
4 harmonic	352.0565580496	1.450098586273
5 harmonic	505.144496193	1.019481865027
6 harmonic	264.62148576755	1.52190126495
7 harmonic	370.04670688625	1.093899492634
8 harmonic	301.15400723785	1.345741232799
9 harmonic	366.7408841747	1.425895053732
10 harmonic	300.03137914615	1.451203938761
11 harmonic	366.34047229585	1.464762957261
12 harmonic	602.81384337	1.196112346392
13 harmonic	329.96998057905	1.427343958716
14 harmonic	543.5267831885	0.9716763312559


Angle Coeffs

1 harmonic	55.42182150775	117.3465570514
2 harmonic	63.44422595415	115.5071327674
3 harmonic	57.8982893754	126.8062420451
4 harmonic	53.20531626545	116.5475862634
5 harmonic	65.09061609600001	110.3538806181
6 harmonic	201.41175231035	127.4691416191
7 harmonic	48.776492647595	115.6030999533
8 harmonic	55.07882548015	112.8714009681
9 harmonic	33.56981613361	180


Dihedral Coeffs

1 fourier 1	-0.1488678166443	4	180
2 fourier 1	-0.1230328948768	3	180
3 fourier 1	0.2939295466901	2	0
4 fourier 1	-0.3024127022865	1	0
5 fourier 1	0.182238503271	2	0
6 fourier 1	0.02972342374561	3	0
7 fourier 1	1.809047390003	2	180
8 fourier 1	-0.04816277792592	1	0
9 fourier 1	3.101948770557	2	180
10 fourier 1	-0.4252153282372	1	0
11 fourier 1	2.348375642009	2	180
12 fourier 1	1.256156174911	1	0
13 fourier 1	0.9974165607242	2	180
14 fourier 1	0.1155372516788	3	0
15 fourier 1	0.09223874044423	3	0
16 fourier 1	0.3159935921949	2	180
17 fourier 1	0.3247796806857	1	180
18 fourier 1	0.1040663847541	3	0
19 fourier 1	2.779853741805	2	180
20 fourier 1	0.1918272375143	3	0
21 fourier 1	0.9202179876409	1	180
22 fourier 1	0.0473758381877	3	0
23 fourier 1	0.4860993122944	2	180
24 fourier 1	0.8916986138746	1	0
25 fourier 1	1.163809172478	2	180
26 fourier 1	0.1679186987369	1	180
27 fourier 1	0.1911926717192	3	0
28 fourier 1	0.1115525666802	3	0
29 fourier 1	0.3432490222662	1	0
30 fourier 1	0.457973137376	1	0
31 fourier 1	-1.382973039546	1	0
32 fourier 1	0	1	0
33 fourier 1	0.3445382149273	3	0
34 fourier 1	0.1364556373303	1	0
35 fourier 1	0.3026390167484	3	0


Improper Coeffs

1 0.3333333333333333	-1	2
2 0.3666666666666667	-1	2
3 3.5	-1	2


Atoms

1	6	1	0.54158242	7.1667	-2.3870418	2.0957438
2	6	2	-0.695446	7.8716067	-1.5764385	1.437772
3	6	3	-0.52397089	5.8776326	-2.0070664	2.5867649
4	6	4	0.029959501	5.3299488	-0.67277217	2.3479863
5	6	4	-0.14656739	3.9410949	-0.53237026	2.9798947
6	6	4	-0.14188184	3.3607315	0.86550656	2.7327314
7	6	4	-0.14149599	1.970597	1.0041056	3.3643084
8	6	4	-0.14149599	1.3959967	2.4090571	3.1257901
9	6	4	-0.14188184	-0.051462456	2.5501853	3.6241662
10	6	4	-0.1452861	-0.15096486	2.5471562	5.1594883
11	6	4	0.024106276	-1.5801447	2.8312833	5.6391244
12	6	3	-0.46794008	-1.9568014	4.2279073	5.4172792
13	6	1	0.78449185	-3.2605337	4.7137744	5.7480198
14	6	2	-0.61803411	-4.1320011	3.9453371	6.2348643
15	6	5	0.323857	-1.2676364	4.9085998	5.0259109
16	6	6	0.053977148	-2.2947376	2.1614198	5.1104166
17	6	6	0.053977148	-1.6430086	2.6116416	6.7267082
18	6	7	0.086061956	0.14530627	1.548197	5.5443116
19	6	7	0.086061956	0.54166887	3.3022729	5.5929297
20	6	7	0.084916973	-0.67576807	1.7312763	3.2043191
21	6	7	0.084916973	-0.45216914	3.5092735	3.232165
22	6	7	0.084150919	1.4026039	2.6179137	2.0336389
23	6	7	0.084150919	2.0394785	3.1698998	3.6184285
24	6	7	0.084150919	1.289184	0.2454417	2.9218942
25	6	7	0.084150919	2.0529711	0.81472486	4.4562752
26	6	7	0.084916973	4.0403391	1.6292349	3.1696599
27	6	7	0.084916973	3.2859106	1.0434538	1.6375672
28	6	7	0.086061956	3.2631155	-1.297175	2.5425303
29	6	7	0.086061956	4.0199836	-0.71149849	4.0748174
30	6	6	0.05043924	5.2566344	-0.49961162	1.2519177
31	6	6	0.05043924	6.0143138	0.087036821	2.784835
32	6	5	0.31727274	5.3311677	-2.7145639	3.1277266
33	7	8	-0.49924491	-3.4942367	5.7116887	5.5857299
34	7	4	0.11353278	-2.5472963	6.2024686	4.6762553
35	7	4	-0.13932659	-2.874445	5.7216673	3.2605117
36	7	4	-0.14038241	-1.8600481	6.2669165	2.2436792
37	7	4	-0.14157858	-2.2310302	5.9155135	0.79429474
38	7	4	-0.14025226	-2.0643431	4.4166158	0.48897214
39	7	4	-0.14025226	-2.1971252	4.0966554	-1.0108716
40	7	4	-0.14152816	-3.5566497	4.4659109	-1.637502
41	7	4	-0.13911247	-4.7835343	3.8403917	-0.95005323
42	7	4	-0.14531831	-4.7646099	2.3037489	-0.98000239
43	7	4	0.035130539	-6.0791131	1.7063596	-0.46907756
44	7	8	-0.17090472	-6.2452626	1.9695277	0.89861644
45	7	6	0.083761514	-6.9417659	2.0909619	-1.0624065
46	7	6	0.083761514	-6.0461796	0.60563879	-0.61015624
47	7	7	0.091036664	-3.9325621	1.9185575	-0.35271776
48	7	7	0.091036664	-4.6031287	1.9584266	-2.0246068
49	7	7	0.086090923	-5.6892487	4.1993449	-1.4848944
50	7	7	0.086090923	-4.8598847	4.2043117	0.095917033
51	7	7	0.084150919	-3.6722859	5.570202	-1.6398162
52	7	7	0.084150919	-3.5466315	4.1512565	-2.7042073
53	7	7	0.084150919	-2.0035207	3.0130964	-1.163099
54	7	7	0.084150919	-1.399062	4.6375045	-1.5631717
55	7	7	0.084150919	-1.0519574	4.0918936	0.81468307
56	7	7	0.084150919	-2.798328	3.8180872	1.0651898
57	7	7	0.084150919	-1.5660671	6.4965947	0.1180442
58	7	7	0.084150919	-3.2773241	6.2334537	0.59725877
59	7	7	0.085914747	-0.8438542	5.8808025	2.4782828
60	7	7	0.085914747	-1.8267357	7.3751892	2.3290943
61	7	7	0.089953327	-2.8592815	4.6117709	3.2500662
62	7	7	0.089953327	-3.8977882	6.0651383	2.9898045
63	7	6	0.083824807	-2.5738913	7.3128748	4.7069754
64	7	6	0.083824807	-1.5238564	5.8742227	4.9693719
65	4	1	0.54158248	7.5422183	-3.3823843	2.2904807
66	4	2	-0.69544606	7.1384106	-4.009069	3.3069918
67	4	3	-0.52397101	8.4966368	-3.9667424	1.3982516
68	4	4	0.029959505	9.0467374	-5.3074122	1.592979
69	4	4	-0.14656739	8.0175657	-6.3888983	1.23605
70	4	4	-0.14188184	7.6328327	-6.3449498	-0.24996952
71	4	4	-0.14149599	6.6469216	-7.4724346	-0.59323676
72	4	4	-0.14131495	6.1245552	-7.3846516	-2.0363312
73	4	4	-0.13750015	7.1814116	-7.7998681	-3.0737278
74	4	4	-0.12294229	6.6652683	-7.697573	-4.5202383
75	4	4	0.18337412	5.6385323	-8.7755773	-4.8904317
76	4	3	-0.65465973	6.2294944	-10.102557	-4.7741703
77	4	9	0.59263189	5.5573308	-11.147433	-5.044169
78	4	2	-0.4823892	4.9029625	-12.164739	-5.306603
79	4	6	0.029485538	5.3150342	-8.6087385	-5.9419006
80	4	6	0.029485538	4.7401035	-8.6984736	-4.2432048
81	4	7	0.079711319	7.5311147	-7.7855096	-5.2119515
82	4	7	0.079711319	6.2159491	-6.6941965	-4.6847282
83	4	7	0.083640174	7.5349957	-8.8320639	-2.865326
84	4	7	0.083640174	8.0595218	-7.1245562	-2.9891972
85	4	7	0.084150919	5.2505626	-8.0658224	-2.1139538
86	4	7	0.084150919	5.7665643	-6.352926	-2.2462687
87	4	7	0.084150919	5.7727192	-7.4016375	0.09123666
88	4	7	0.084150919	7.1264711	-8.4613939	-0.42483909
89	4	7	0.084916973	7.1644372	-5.3641512	-0.48043161
90	4	7	0.084916973	8.5541612	-6.4521423	-0.86123426
91	4	7	0.086061956	7.1095133	-6.2649229	1.8646374
92	4	7	0.086061956	8.4602191	-7.3818626	1.4692215
93	4	6	0.05043924	9.3676307	-5.4300576	2.6494636
94	4	6	0.05043924	9.9484615	-5.4335239	0.9552052
95	4	5	0.31727277	8.8543043	-3.3858502	0.60694299
96	5	8	-0.17090472	-6.7282332	2.8344061	0.96880045
97	5	4	0.035130539	-5.9995118	3.764402	0.21506195
98	5	4	-0.14531831	-6.2556524	3.5510151	-1.2792335
99	5	4	-0.13911247	-5.4817163	4.5747237	-2.1230308
100	5	4	-0.14152816	-5.8154389	4.4774689	-3.6203887
101	5	4	-0.14025226	-5.2621948	3.1960091	-4.2667251
102	5	4	-0.14025226	-5.3792529	3.2058588	-5.8019532
103	5	4	-0.14152816	-6.8179354	3.3176126	-6.3453075
104	5	4	-0.13502732	-7.7910876	2.2360796	-5.8413371
105	5	4	-0.16724205	-7.3555903	0.81441095	-6.2325536
106	5	4	0.08840947	-8.4287148	-0.22405798	-5.8963688
107	5	10	-0.68167977	-8.5902554	-0.3397262	-4.5073261
108	5	11	0.38244708	-9.2870438	0.3162586	-4.2427987
109	5	6	0.07469275	-9.3921544	0.031181644	-6.3953035
110	5	6	0.07469275	-8.1029105	-1.2098111	-6.2918374
111	5	7	0.093391777	-6.4180185	0.5421632	-5.7010677
112	5	7	0.093391777	-7.1585712	0.77679015	-7.3261664
113	5	7	0.086090923	-8.7859478	2.4424846	-6.2911604
114	5	7	0.086090923	-7.9094773	2.3136342	-4.7407453
115	5	7	0.084150919	-7.2313385	4.3162061	-6.0885313
116	5	7	0.084150919	-6.7765911	3.2719938	-7.4546801
117	5	7	0.084150919	-4.9052737	2.2842094	-6.2014079
118	5	7	0.084150919	-4.787969	4.058735	-6.1995716
119	5	7	0.084150919	-4.1844237	3.0990528	-4.0114802
120	5	7	0.084150919	-5.7749613	2.3014612	-3.8583138
121	5	7	0.084150919	-5.3701617	5.3592622	-4.130109
122	5	7	0.084150919	-6.9176352	4.5302746	-3.7523123
123	5	7	0.086090923	-4.3877696	4.4421084	-1.971655
124	5	7	0.086090923	-5.7468085	5.5989961	-1.7794304
125	5	7	0.091036664	-5.9383556	2.522287	-1.5498832
126	5	7	0.091036664	-7.3453772	3.6491197	-1.4764372
127	5	6	0.083761514	-6.3261713	4.7854251	0.50647139
128	5	6	0.083761514	-4.9111328	3.6740808	0.43848786
129	6	1	0.54158242	2.1918514	-1.1887248	20.865007
130	6	2	-0.695446	2.9329377	-2.1968833	21.010971
131	6	3	-0.52397089	1.0698674	-0.97253631	21.726165
132	6	4	0.029959501	0.739096	-1.9056637	22.801887
133	6	4	-0.14656739	-0.50343621	-1.4376802	23.566767
134	6	4	-0.14188184	-0.85572417	-2.4124623	24.697105
135	6	4	-0.14149599	-2.0982393	-1.9422794	25.462387
136	6	4	-0.14149599	-2.4564755	-2.9263766	26.586738
137	6	4	-0.14188184	-3.6142667	-2.4263142	27.46588
138	6	4	-0.1452861	-4.9669011	-2.452668	26.733207
139	6	4	0.024106276	-6.1284135	-2.0875021	27.666415
140	6	3	-0.46794008	-6.4025959	-3.1538477	28.630456
141	6	1	0.78449185	-7.4166799	-3.0178578	29.629613
142	6	2	-0.61803411	-8.1020165	-1.9643163	29.715246
143	6	5	0.323857	-5.8697966	-4.0518304	28.595645
144	6	6	0.053977148	-5.8939084	-1.1435777	28.207623
145	6	6	0.053977148	-7.0394248	-1.9155343	27.053619
146	6	7	0.086061956	-4.9498599	-1.7128674	25.904841
147	6	7	0.086061956	-5.1481904	-3.4582236	26.292973
148	6	7	0.084916973	-3.3984564	-1.3951733	27.821991
149	6	7	0.084916973	-3.6681891	-3.0833036	28.360049
150	6	7	0.084150919	-1.5668713	-3.0632426	27.239678
151	6	7	0.084150919	-2.7131904	-3.9178146	26.154544
152	6	7	0.084150919	-1.9031429	-0.93816605	25.897495
153	6	7	0.084150919	-2.9481709	-1.8627346	24.750818
154	6	7	0.084916973	-1.0480512	-3.4200202	24.268279
155	6	7	0.084916973	0.0028928731	-2.4850435	25.400067
156	6	7	0.086061956	-0.30972948	-0.42987202	23.994166
157	6	7	0.086061956	-1.3596278	-1.3658602	22.860407
158	6	6	0.05043924	1.6001727	-1.974607	23.502258
159	6	6	0.05043924	0.54994035	-2.9118569	22.367954
160	6	5	0.31727274	0.48491021	-0.12189446	21.564766
161	7	8	-0.49924491	-7.5920976	-3.7955066	30.293901
162	7	4	0.11353278	-6.4553373	-4.6149027	30.26117
163	7	4	-0.13932659	-5.3158027	-3.9710314	31.054528
164	7	4	-0.14038241	-4.0657847	-4.8641595	31.049713
165	7	4	-0.14157858	-2.9448913	-4.3144453	31.945949
166	7	4	-0.14025226	-2.3047242	-3.0372527	31.374402
167	7	4	-0.14025226	-1.0310348	-2.6201224	32.131538
168	7	4	-0.14152816	-1.2354785	-2.3090587	33.627788
169	7	4	-0.13911247	-2.29321	-1.233084	33.932071
170	7	4	-0.14531831	-1.9515933	0.13090762	33.311305
171	7	4	0.035130539	-2.9076767	1.2296026	33.785236
172	7	8	-0.17090472	-4.2035449	1.0037128	33.298256
173	7	6	0.083761514	-2.9011055	1.302276	34.898252
174	7	6	0.083761514	-2.5518622	2.203695	33.38886
175	7	7	0.091036664	-2.0018316	0.070870875	32.203138
176	7	7	0.091036664	-0.9161509	0.41667821	33.598909
177	7	7	0.086090923	-2.3522237	-1.1209994	35.036234
178	7	7	0.086090923	-3.2920001	-1.573738	33.587551
179	7	7	0.084150919	-1.5104956	-3.2423164	34.162794
180	7	7	0.084150919	-0.26126595	-1.9815821	34.052802
181	7	7	0.084150919	-0.59079702	-1.7329491	31.627683
182	7	7	0.084150919	-0.28042282	-3.4344988	32.043046
183	7	7	0.084150919	-2.0227957	-3.217732	30.314025
184	7	7	0.084150919	-3.0328819	-2.2013327	31.379009
185	7	7	0.084150919	-2.1619113	-5.0990029	32.038457
186	7	7	0.084150919	-3.3513526	-4.1188696	32.961419
187	7	7	0.085914747	-3.6923139	-4.9871973	30.009446
188	7	7	0.085914747	-4.3434898	-5.8720617	31.428774
189	7	7	0.089953327	-5.0778346	-2.987047	30.599166
190	7	7	0.089953327	-5.6535629	-3.8050021	32.101829
191	7	6	0.083824807	-6.7162129	-5.5951829	30.714654
192	7	6	0.083824807	-6.1396144	-4.7956361	29.2082
193	4	1	0.54158248	2.4083613	-0.47860465	20.078562
194	4	2	-0.69544606	1.472735	0.21304101	19.593465
195	4	3	-0.52397101	3.7488664	-0.34290814	19.595763
196	4	4	0.029959505	4.1195245	0.59693815	18.538774
197	4	4	-0.14656739	4.1368176	2.0411256	19.058609
198	4	4	-0.14188184	5.2031663	2.246026	20.144482
199	4	4	-0.14149599	5.2391407	3.7111749	20.606131
200	4	4	-0.14131495	6.1931173	3.9367012	21.79026
201	4	4	-0.13750015	7.6731697	3.8824597	21.375477
202	4	4	-0.12294229	8.6301862	4.0924076	22.562617
203	4	4	0.18337412	8.6592439	5.5330318	23.089002
204	4	3	-0.65465973	9.11378	6.4460849	22.048156
205	4	9	0.59263189	9.2240405	7.6931341	22.269921
206	4	2	-0.4823892	9.3310464	8.9072309	22.485559
207	4	6	0.029485538	9.3616405	5.5799209	23.950694
208	4	6	0.029485538	7.6555725	5.8365533	23.453063
209	4	7	0.079711319	9.6579314	3.8153178	22.241913
210	4	7	0.079711319	8.3503671	3.4068036	23.391687
211	4	7	0.083640174	7.8747288	4.634654	20.583354
212	4	7	0.083640174	7.8947992	2.8815855	20.947225
213	4	7	0.084150919	5.9687964	4.9406224	22.209431
214	4	7	0.084150919	5.9908075	3.1869788	22.586298
215	4	7	0.084150919	4.2168952	4.0076568	20.92995
216	4	7	0.084150919	5.527506	4.3701541	19.758218
217	4	7	0.084916973	4.9746138	1.5923005	21.013321
218	4	7	0.084916973	6.1934583	1.9573417	19.732215
219	4	7	0.086061956	3.134929	2.3080425	19.458641
220	4	7	0.086061956	4.3529404	2.717134	18.202693
221	4	6	0.05043924	3.4027677	0.51154674	17.694297
222	4	6	0.05043924	5.1265593	0.33520987	18.147436
223	4	5	0.31727277	4.479757	-0.98379404	19.978641
224	5	8	-0.17090472	-4.671539	0.44552151	33.973241
225	5	4	0.035130539	-3.861302	-0.67525737	34.2
226	5	4	-0.14531831	-2.6737905	-0.29809385	35.089734
227	5	4	-0.13911247	-1.7836848	-1.5184632	35.367871
228	5	4	-0.14152816	-0.65461287	-1.2099354	36.364323
229	5	4	-0.14025226	0.4204793	-0.283938	35.770459
230	5	4	-0.14025226	1.6660308	-0.16643757	36.667967
231	5	4	-0.14152816	1.4036401	0.40592184	38.075477
232	5	4	-0.13502732	0.71668602	1.7836536	38.101444
233	5	4	-0.16724205	1.5455475	2.8753674	37.405025
234	5	4	0.08840947	0.94380653	4.2676217	37.61135
235	5	10	-0.68167977	-0.29228507	4.3766493	36.956289
236	5	11	0.38244708	-0.98800784	4.0915127	37.604727
237	5	6	0.07469275	0.84683695	4.496438	38.697876
238	5	6	0.07469275	1.6357005	5.0198522	37.175822
239	5	7	0.093391777	1.6056341	2.671778	36.313889
240	5	7	0.093391777	2.5785112	2.872992	37.816366
241	5	7	0.086090923	0.57240925	2.0677914	39.165935
242	5	7	0.086090923	-0.29182847	1.7147583	37.643749
243	5	7	0.084150919	0.78430897	-0.31177225	38.654588
244	5	7	0.084150919	2.3756539	0.48133826	38.608393
245	5	7	0.084150919	2.4207893	0.4622573	36.149565
246	5	7	0.084150919	2.1220012	-1.1737998	36.779444
247	5	7	0.084150919	0.74869004	-0.69361288	34.790365
248	5	7	0.084150919	0.0019625817	0.72483214	35.57766
249	5	7	0.084150919	-0.18037918	-2.1721571	36.655661
250	5	7	0.084150919	-1.0907169	-0.75582313	37.280088
251	5	7	0.086090923	-1.3521938	-1.8985965	34.41575
252	5	7	0.086090923	-2.4095797	-2.3298312	35.800776
253	5	7	0.091036664	-2.0835324	0.49030607	34.577649
254	5	7	0.091036664	-3.0573846	0.11313637	36.048774
255	5	6	0.083761514	-4.4722298	-1.4535756	34.705077
256	5	6	0.083761514	-3.5022024	-1.0940872	33.231354
257	6	1	0.54158242	1.647111	-4.8616108	50.669169
258	6	2	-0.695446	2.6726042	-4.3000948	50.200169
259	6	3	-0.52397089	1.3465552	-4.7908921	52.066253
260	6	4	0.029959501	2.2106644	-4.0706628	53.000008
261	6	4	-0.14656739	1.6593898	-4.1530049	54.427332
262	6	4	-0.14188184	2.56149	-3.3990045	55.41205
263	6	4	-0.14149599	2.0080002	-3.4810532	56.839456
264	6	4	-0.14149599	2.9194892	-2.735149	57.826249
265	6	4	-0.14188184	2.3334011	-2.6760675	59.246264
266	6	4	-0.1452861	2.3483611	-4.0444904	59.949343
267	6	4	0.024106276	1.8939939	-3.9399867	61.410836
268	6	3	-0.46794008	2.8988377	-3.2769118	62.242861
269	6	1	0.78449185	2.6751441	-3.029645	63.633542
270	6	2	-0.61803411	1.5944887	-3.3696892	64.184471
271	6	5	0.323857	3.8161137	-2.9846385	61.837101
272	6	6	0.053977148	0.93264199	-3.3818392	61.467103
273	6	6	0.053977148	1.7208511	-4.9641679	61.805941
274	6	7	0.086061956	1.6531503	-4.7339826	59.424874
275	6	7	0.086061956	3.3679659	-4.4879471	59.909769
276	6	7	0.084916973	1.2938278	-2.2830022	59.208476
277	6	7	0.084916973	2.9412525	-1.954995	59.833335
278	6	7	0.084150919	3.0547646	-1.6907458	57.469343
279	6	7	0.084150919	3.9218625	-3.2149412	57.852522
280	6	7	0.084150919	0.99059746	-3.033983	56.86485
281	6	7	0.084150919	1.9343774	-4.5501013	57.134003
282	6	7	0.084916973	3.5821084	-3.8392539	55.388118
283	6	7	0.084916973	2.628919	-2.3322925	55.105086
284	6	7	0.086061956	0.63864477	-3.7131564	54.449308
285	6	7	0.086061956	1.5929826	-5.221129	54.730427
286	6	6	0.05043924	2.2746847	-3.0047761	52.689343
287	6	6	0.05043924	3.2302976	-4.5133588	52.970505
288	6	5	0.31727274	0.48470922	-5.2733886	52.407185
289	7	8	-0.49924491	3.4108185	-2.5641625	64.198252
290	7	4	0.11353278	4.2714098	-1.9303348	63.291417
291	7	4	-0.13932659	3.6293258	-0.64591425	62.761777
292	7	4	-0.14038241	4.5661691	0.076592703	61.781698
293	7	4	-0.14157858	4.0121019	1.4373489	61.330945
294	7	4	-0.14025226	2.7899264	1.3002205	60.406183
295	7	4	-0.14025226	2.3808492	2.6356109	59.758939
296	7	4	-0.14152816	1.9862117	3.746744	60.7524
297	7	4	-0.13911247	0.85847104	3.3758704	61.732074
298	7	4	-0.14531831	-0.45860877	3.0274237	61.020448
299	7	4	0.035130539	-1.6140533	2.8534019	62.01065
300	7	8	-0.17090472	-1.4105065	1.7240084	62.817179
301	7	6	0.083761514	-1.7434673	3.7731371	62.628281
302	7	6	0.083761514	-2.5530058	2.7065155	61.436746
303	7	7	0.091036664	-0.34363533	2.0867142	60.440785
304	7	7	0.091036664	-0.72110921	3.8438547	60.312595
305	7	7	0.086090923	0.68780486	4.2503539	62.396433
306	7	7	0.086090923	1.1799938	2.5344454	62.380879
307	7	7	0.084150919	2.8802189	4.0527216	61.335465
308	7	7	0.084150919	1.6728199	4.6409202	60.16999
309	7	7	0.084150919	1.537215	2.4497616	59.060013
310	7	7	0.084150919	3.22532	3.0049778	59.138539
311	7	7	0.084150919	3.0346713	0.5893978	59.586861
312	7	7	0.084150919	1.9290721	0.8739229	60.959534
313	7	7	0.084150919	4.8186948	1.9735914	60.784137
314	7	7	0.084150919	3.750089	2.0403905	62.226673
315	7	7	0.085914747	4.7558659	-0.56713704	60.894906
316	7	7	0.085914747	5.5425796	0.25411727	62.283477
317	7	7	0.089953327	2.6792639	-0.90829344	62.251142
318	7	7	0.089953327	3.3976534	0.02286893	63.62058
319	7	6	0.083824807	5.2170423	-1.6825402	63.819649
320	7	6	0.083824807	4.5172509	-2.6159333	62.44844
321	4	1	0.54158248	0.98658819	-5.4030866	50.005726
322	4	2	-0.69544606	0.28734876	-6.3472853	50.4625
323	4	3	-0.52397101	0.92444243	-5.0459953	48.621138
324	4	4	0.029959505	0.054109368	-5.7283707	47.664681
325	4	4	-0.14656739	-1.413281	-5.3216356	47.858426
326	4	4	-0.14188184	-1.6349211	-3.827834	47.579791
327	4	4	-0.14149599	-3.1195693	-3.4589636	47.724115
328	4	4	-0.14131495	-3.3709033	-1.9481585	47.592232
329	4	4	-0.13750015	-3.2419272	-1.4519162	46.14218
330	4	4	-0.12294229	-3.4777581	0.063432174	46.010407
331	4	4	0.18337412	-4.9415026	0.48229815	46.19836
332	4	3	-0.65465973	-5.7828888	-0.1387458	45.183469
333	4	9	0.59263189	-7.0348686	0.0791416	45.144219
334	4	2	-0.4823892	-8.2537643	0.2908582	45.106135
335	4	6	0.029485538	-5.0071071	1.5889093	46.102543
336	4	6	0.029485538	-5.2994262	0.2081903	47.212646
337	4	7	0.079711319	-3.147568	0.38632088	44.999167
338	4	7	0.079711319	-2.8461814	0.60370951	46.748594
339	4	7	0.083640174	-3.9446907	-2.0074491	45.485379
340	4	7	0.083640174	-2.2130301	-1.6577337	45.777106
341	4	7	0.084150919	-4.4024726	-1.7514169	47.954226
342	4	7	0.084150919	-2.6708349	-1.3898767	48.251713
343	4	7	0.084150919	-3.469074	-3.7765989	48.731438
344	4	7	0.084150919	-3.7232974	-4.0093603	46.969832
345	4	7	0.084916973	-1.035346	-3.2264754	48.296276
346	4	7	0.084916973	-1.2898155	-3.6013604	46.548485
347	4	7	0.086061956	-1.7364538	-5.564278	48.893672
348	4	7	0.086061956	-2.036208	-5.919858	47.158154
349	4	6	0.05043924	0.1567371	-6.8280676	47.784298
350	4	6	0.05043924	0.37184383	-5.4757635	46.629789
351	4	5	0.31727277	1.5708602	-4.3029655	48.272452
352	5	8	-0.17090472	-0.9049921	2.0280443	63.616065
353	5	4	0.035130539	0.23125485	2.6977431	63.142255
354	5	4	-0.14531831	-0.14785795	4.09459	62.643103
355	5	4	-0.13911247	1.0880361	4.8539952	62.138306
356	5	4	-0.14152816	0.76983191	6.3072783	61.751493
357	5	4	-0.14025226	-0.084958633	6.4054029	60.476474
358	5	4	-0.14025226	-0.2032197	7.8471673	59.949165
359	5	4	-0.14152816	-0.8561797	8.8466493	60.924977
360	5	4	-0.13502732	-2.2573819	8.4494025	61.424529
361	5	4	-0.16724205	-3.2812082	8.3200982	60.284832
362	5	4	0.08840947	-4.7030771	8.1194174	60.814973
363	5	10	-0.68167977	-4.8229975	6.8779258	61.457805
364	5	11	0.38244708	-4.5968767	7.02531	62.41329
365	5	6	0.07469275	-4.9907129	8.9553399	61.493795
366	5	6	0.07469275	-5.4064355	8.135173	59.955153
367	5	7	0.093391777	-3.0198474	7.4589643	59.632317
368	5	7	0.093391777	-3.2625714	9.2434483	59.665721
369	5	7	0.086090923	-2.600811	9.2391936	62.126653
370	5	7	0.086090923	-2.201625	7.5032232	62.001564
371	5	7	0.084150919	-0.19203286	8.9895486	61.803905
372	5	7	0.084150919	-0.92362606	9.8340583	60.420029
373	5	7	0.084150919	-0.77675834	7.8328554	58.99811
374	5	7	0.084150919	0.81293214	8.2189917	59.695597
375	5	7	0.084150919	0.38608384	5.7919599	59.677758
376	5	7	0.084150919	-1.0969868	5.9876843	60.653266
377	5	7	0.084150919	1.7323624	6.8367263	61.581594
378	5	7	0.084150919	0.25383731	6.8056953	62.600233
379	5	7	0.086090923	1.5318968	4.3213758	61.268522
380	5	7	0.086090923	1.852938	4.8746959	62.94575
381	5	7	0.091036664	-0.88706293	3.9889594	61.821745
382	5	7	0.091036664	-0.62137618	4.6593204	63.475494
383	5	6	0.083761514	0.96000984	2.7856852	63.9761
384	5	6	0.083761514	0.71196435	2.1114076	62.32508
385	6	1	0.54158242	-0.66044078	3.8062447	91.712125
386	6	2	-0.695446	0.55347805	4.0407409	91.953601
387	6	3	-0.52397089	-1.1408577	3.7401404	90.366017
388	6	4	0.029959501	-0.25022548	3.9413317	89.22426
389	6	4	-0.14656739	-1.0190804	3.8177263	87.904593
390	6	4	-0.14188184	-0.090105774	4.0276009	86.702541
391	6	4	-0.14149599	-0.86039764	3.9022824	85.382875
392	6	4	-0.14149599	0.069672758	4.1246628	84.180185
393	6	4	-0.14188184	-0.63083613	3.8748492	82.834706
394	6	4	-0.1452861	-1.6654783	4.9620412	82.496102
395	6	4	0.024106276	-2.2498692	4.7753341	81.090057
396	6	3	-0.46794008	-1.2717425	5.0998712	80.051025
397	6	1	0.78449185	-1.5800148	4.9588288	78.661691
398	6	2	-0.61803411	-2.7079589	4.5389502	78.289652
399	6	5	0.323857	-0.32560306	5.4620782	80.306145
400	6	6	0.053977148	-2.59757	3.7256024	80.963331
401	6	6	0.053977148	-3.1292645	5.4451916	80.976093
402	6	7	0.086061956	-2.5036382	4.9099351	83.223122
403	6	7	0.086061956	-1.2044992	5.9716152	82.574028
404	6	7	0.084916973	-1.122057	2.8772384	82.845466
405	6	7	0.084916973	0.15059665	3.8531104	82.045421
406	6	7	0.084150919	0.9262906	3.419616	84.254844
407	6	7	0.084150919	0.47996768	5.1574726	84.204781
408	6	7	0.084150919	-1.3142985	2.8896932	85.317589
409	6	7	0.084150919	-1.674507	4.6586618	85.370304
410	6	7	0.084916973	0.37024775	5.0376956	86.764488
411	6	7	0.084916973	0.72072104	3.2669738	86.728118
412	6	7	0.086061956	-1.4793557	2.8075666	87.844643
413	6	7	0.086061956	-1.8292308	4.5795383	87.883033
414	6	6	0.05043924	0.55840379	3.1784628	89.253855
415	6	6	0.05043924	0.20904867	4.9517495	89.292267
416	6	5	0.31727274	-2.1562133	3.5434162	90.217126
417	7	8	-0.49924491	-0.86709924	5.2047095	77.948892
418	7	4	0.11353278	0.37060343	5.2150707	78.606683
419	7	4	-0.13932659	0.85668185	3.7830446	78.842384
420	7	4	-0.14038241	2.223645	3.77197	79.54348
421	7	4	-0.14157858	2.8059549	2.3560968	79.677812
422	7	4	-0.14025226	2.0326201	1.4932216	80.690285
423	7	4	-0.14025226	2.747097	0.16791618	81.010637
424	7	4	-0.14152816	2.9643564	-0.76350538	79.801267
425	7	4	-0.13911247	1.6876008	-1.1351361	79.026095
426	7	4	-0.14531831	0.66080118	-1.8823482	79.892053
427	7	4	0.035130539	-0.51030667	-2.4126497	79.059512
428	7	8	-0.17090472	-1.2751909	-1.3538896	78.548211
429	7	6	0.083761514	-0.14201917	-3.0766503	78.242447
430	7	6	0.083761514	-1.1615707	-3.0272025	79.715831
431	7	7	0.091036664	0.26000075	-1.2080124	80.678686
432	7	7	0.091036664	1.1574365	-2.7435509	80.390255
433	7	7	0.086090923	1.9861647	-1.7885269	78.178061
434	7	7	0.086090923	1.2306056	-0.22369797	78.587054
435	7	7	0.084150919	3.6844706	-0.29251597	79.099526
436	7	7	0.084150919	3.4469466	-1.6981826	80.16245
437	7	7	0.084150919	2.1673021	-0.37054849	81.790797
438	7	7	0.084150919	3.7378332	0.39587373	81.458894
439	7	7	0.084150919	1.9285499	2.0588037	81.64199
440	7	7	0.084150919	1.0077172	1.2857704	80.322134
441	7	7	0.084150919	3.8615346	2.4485045	80.015981
442	7	7	0.084150919	2.8104935	1.8663973	78.680408
443	7	7	0.085914747	2.138115	4.2426323	80.547439
444	7	7	0.085914747	2.9379666	4.3803441	78.946572
445	7	7	0.089953327	0.1082396	3.2523269	79.46719
446	7	7	0.089953327	0.93418788	3.2619163	77.862127
447	7	6	0.083824807	1.1024564	5.7556134	77.968829
448	7	6	0.083824807	0.28895995	5.7600955	79.574864
449	4	1	0.54158248	-1.3464333	3.6527985	92.534021
450	4	2	-0.69544606	-2.5696315	3.9140773	92.377149
451	4	3	-0.52397101	-0.85391235	3.1658887	93.78654
452	4	4	0.029959505	-1.7194282	2.9302092	94.94121
453	4	4	-0.14656739	-2.5636511	1.6618601	94.754708
454	4	4	-0.14188184	-1.6911804	0.40122071	94.666457
455	4	4	-0.14149599	-2.5616853	-0.85849442	94.538339
456	4	4	-0.14131495	-1.7320838	-2.131661	94.306171
457	4	4	-0.13750015	-0.9957118	-2.5966236	95.573888
458	4	4	-0.12294229	-0.15191376	-3.8624362	95.339401
459	4	4	0.18337412	-0.98431655	-5.1377805	95.155212
460	4	3	-0.65465973	-1.7760047	-5.4056045	96.349
461	4	9	0.59263189	-2.5352287	-6.4229801	96.419674
462	4	2	-0.4823892	-3.2746874	-7.4131572	96.488458
463	4	6	0.029485538	-0.2907437	-5.989231	94.976154
464	4	6	0.029485538	-1.6464002	-5.0478904	94.268879
465	4	7	0.079711319	0.52109097	-4.0058508	96.212549
466	4	7	0.079711319	0.49578604	-3.7177487	94.447628
467	4	7	0.083640174	-1.7230077	-2.767959	96.395816
468	4	7	0.083640174	-0.30156757	-1.7953932	95.906248
469	4	7	0.084150919	-2.4333964	-2.9286285	93.979237
470	4	7	0.084150919	-1.0055481	-1.9637745	93.481156
471	4	7	0.084150919	-3.2444413	-0.73258254	93.669008
472	4	7	0.084150919	-3.1921868	-0.97907892	95.446245
473	4	7	0.084916973	-1.0221993	0.47727894	93.782629
474	4	7	0.084916973	-1.0656547	0.33441311	95.582009
475	4	7	0.086061956	-3.1846313	1.7557907	93.837859
476	4	7	0.086061956	-3.2511334	1.5697964	95.623719
477	4	6	0.05043924	-2.3868493	3.8052461	95.092977
478	4	6	0.05043924	-1.0959931	2.8254636	95.855607
479	4	5	0.31727277	0.17616522	3.0274697	93.892895
480	5	8	-0.17090472	-0.88620063	-1.117701	77.665543
481	5	4	0.035130539	0.4796487	-0.88573365	77.876957
482	5	4	-0.14531831	1.2232348	-2.2144829	78.036851
483	5	4	-0.13911247	2.7266939	-1.9829479	78.24887
484	5	4	-0.14152816	3.5264893	-3.2952527	78.281937
485	5	4	-0.14025226	3.2504095	-4.1233557	79.548426
486	5	4	-0.14025226	4.2189638	-5.3098425	79.70615
487	5	4	-0.14152816	4.1797672	-6.340173	78.559671
488	5	4	-0.13502732	2.7930243	-6.9451278	78.273841
489	5	4	-0.16724205	2.2162913	-7.7072721	79.478152
490	5	4	0.08840947	0.93570001	-8.4631537	79.115161
491	5	10	-0.68167977	-0.1010605	-7.5673791	78.812457
492	5	11	0.38244708	-0.051541959	-7.3885274	77.837077
493	5	6	0.07469275	1.1209939	-9.1668782	78.270923
494	5	6	0.07469275	0.62449616	-9.0721958	79.990645
495	5	7	0.093391777	1.9897	-6.9998496	80.305103
496	5	7	0.093391777	2.9672044	-8.4409064	79.844392
497	5	7	0.086090923	2.9026221	-7.650738	77.422493
498	5	7	0.086090923	2.0905863	-6.1499948	77.948761
499	5	7	0.084150919	4.5615101	-5.8691091	77.628867
500	5	7	0.084150919	4.8846463	-7.1630567	78.805651
501	5	7	0.084150919	4.0026359	-5.8209961	80.668221
502	5	7	0.084150919	5.2551533	-4.9163936	79.78754
503	5	7	0.084150919	3.3695882	-3.4701188	80.440177
504	5	7	0.084150919	2.2042807	-4.4915186	79.552358
505	5	7	0.084150919	4.6078408	-3.0401095	78.24691
506	5	7	0.084150919	3.2887675	-3.8899242	77.373706
507	5	7	0.086090923	2.8943882	-1.4159189	79.190984
508	5	7	0.086090923	3.1178867	-1.3651067	77.410593
509	5	7	0.091036664	0.7985139	-2.755747	78.907974
510	5	7	0.091036664	1.0631331	-2.8298985	77.124905
511	5	6	0.083761514	0.88251305	-0.33722926	76.998915
512	5	6	0.083761514	0.6275613	-0.2478393	78.779098
513	6	1	0.54158242	-3.7054644	6.834242	114.19513
514	6	2	-0.695446	-2.772689	7.5213959	114.68975
515	6	3	-0.52397089	-3.4287813	5.7883221	113.25882
516	6	4	0.029959501	-2.0631737	5.4768811	112.83997
517	6	4	-0.14656739	-2.0514133	4.3195684	111.83577
518	6	4	-0.14188184	-0.6212822	3.9876706	111.39244
519	6	4	-0.14149599	-0.61091138	2.8287043	110.38882
520	6	4	-0.14149599	0.8216838	2.5056338	109.93689
521	6	4	-0.14188184	0.89282473	1.2628098	109.0348
522	6	4	-0.1452861	0.28989351	1.5088568	107.64086
523	6	4	0.024106276	0.49720747	0.30765756	106.70948
524	6	3	-0.46794008	1.8963948	0.17559639	106.30146
525	6	1	0.78449185	2.3347981	-0.89899619	105.46586
526	6	2	-0.61803411	1.5246172	-1.774863	105.06159
527	6	5	0.323857	2.6062472	0.88129514	106.60073
528	6	6	0.053977148	0.16514529	-0.62489591	107.21837
529	6	6	0.053977148	-0.1291205	0.44611288	105.80197
530	6	7	0.086061956	-0.80332463	1.6792765	107.73893
531	6	7	0.086061956	0.73972517	2.4161501	107.18012
532	6	7	0.084916973	0.37275367	0.41111973	109.52551
533	6	7	0.084916973	1.9626299	0.98319891	108.92796