Title

81 atoms
86 bonds
149 angles
245 dihedrals
84 impropers

9 atom types
14 bond types
7 angle types
24 dihedral types
2 improper types
-7.298999786 92.70100021 xlo xhi
-4.147999763 95.85200024 ylo yhi
-4.376999855 95.62300014 zlo zhi
0.0 0.0 0.0 xy xz yz

Masses

1	15.99943
2	12.01078
3	1.007947
4	12.01078
5	15.99943
6	1.007947
7	1.007947
8	15.99943
9	1.007947


Pair Coeffs

1	0.16846514	3.0251065
2	0.10884061	3.3795318
3	0.016409246	2.5832257
4	0.086879315	3.4806469
5	0.2102061	3.0398122
6	0.015611343	2.5725815
7	0.015779483	2.6445434
8	0.20947353	2.99716
9	1.2326e-05	0.53453923

Bond Coeffs

1 harmonic	366.7408841747	1.425895053732
2 harmonic	300.03137914615	1.451203938761
3 harmonic	264.62148576755	1.52190126495
4 harmonic	370.04670688625	1.093899492634
5 harmonic	301.15400723785	1.345741232799
6 harmonic	582.698766451	1.225198386222
7 harmonic	329.44145381095	1.523435958334
8 harmonic	289.73813263395	1.498646816465
9 harmonic	279.1350963404	1.454628925034
10 harmonic	360.7852444772	1.387193227181
11 harmonic	397.2545789619	1.085358495916
12 harmonic	329.96998057905	1.427343958716
13 harmonic	543.5267831885	0.9716763312559
14 harmonic	385.7604595587	1.369745182308


Angle Coeffs

1 harmonic	53.20531626545	116.5475862634
2 harmonic	65.09061609600001	110.3538806181
3 harmonic	201.41175231035	127.4691416191
4 harmonic	57.8982893754	126.8062420451
5 harmonic	48.776492647595	115.6030999533
6 harmonic	14.32262199324	138.3184368373
7 harmonic	34.066775159195	129.1835929926


Dihedral Coeffs

1 fourier 1	-0.0309670556842	3	0
2 fourier 1	0.4598191477945	2	0
3 fourier 1	0.1115525666802	3	0
4 fourier 1	0.3432490222662	1	0
5 fourier 1	0.0473758381877	3	0
6 fourier 1	0.457973137376	1	0
7 fourier 1	0.1918272375143	3	0
8 fourier 1	0.9202179876409	1	180
9 fourier 1	1.163809172478	2	180
10 fourier 1	0.1679186987369	1	180
11 fourier 1	2.779853741805	2	180
12 fourier 1	0.02664938770063	3	0
13 fourier 1	0.1911926717192	3	0
14 fourier 1	-0.3703352413219	2	0
15 fourier 1	0.1155372516788	3	0
16 fourier 1	0.9974165607242	2	180
17 fourier 1	3.661930099076	2	180
18 fourier 1	0.1040663847541	3	0
19 fourier 1	0.3445382149273	3	0
20 fourier 1	0.1364556373303	1	0
21 fourier 1	0.3026390167484	3	0
22 fourier 1	2.687457892086	2	180
23 fourier 1	2.772607909663	2	180
24 fourier 1	0.09692684957115	1	0


Improper Coeffs

1 3.5	-1	2
2 0.3666666666666667	-1	2


Atoms

1	1	1	-0.13289601	1.576	-0.336	0.85699999
2	1	2	0.053357001	0.63599998	-0.419	-0.17900001
3	1	2	0.16362099	-0.71899998	0.11	0.28999999
4	1	1	-0.480957	-1.675	-0.035999998	-0.72399998
5	1	3	0.102299	-1.051	-0.46900001	1.177
6	1	3	0.102299	-0.63099998	1.1799999	0.58899999
7	1	3	0.099698998	0.52999997	-1.484	-0.477
8	1	3	0.099698998	0.98699999	0.154	-1.068
9	1	4	0.75775999	-1.49	0.71600002	-1.418
10	1	5	-0.523637	-1.3200001	0.403	-2.5869999
11	1	2	-0.318744	-1.487	2.1719999	-0.986
12	1	4	0.53958601	-1.192	2.2739999	0.49900001
13	1	5	-0.50560302	-0.93800002	3.3529999	1.013
14	1	4	0.106531	-0.47099999	2.928	-1.788
15	1	4	-0.084840998	0.866	2.826	-1.735
16	1	6	0.20103399	1.346	2.164	-1.026
17	1	4	-0.26541901	1.679	3.635	-2.6760001
18	1	6	0.20606001	2.7590001	3.5780001	-2.6389999
19	1	4	-0.24492399	1.076	4.4320002	-3.579
20	1	6	0.20606001	1.671	5.0159998	-4.2690001
21	1	4	-0.20792	-0.405	4.5050001	-3.638
22	1	6	0.205364	-0.89499998	5.1259999	-4.3769999
23	1	4	-0.084389001	-1.1160001	3.783	-2.7650001
24	1	2	-0.160831	-2.592	3.6789999	-2.6830001
25	1	7	0.129995	-2.9590001	3.1240001	-3.5680001
26	1	7	0.129995	-3.059	4.6880002	-2.6589999
27	1	2	0.107903	-2.819	2.9230001	-1.346
28	1	4	-0.187317	-4.0830002	2.0739999	-1.2869999
29	1	4	-0.236076	-4.441	1.232	-2.28
30	1	6	0.203858	-3.8429999	1.126	-3.174
31	1	4	-0.21547499	-5.6589999	0.40400001	-2.1589999
32	1	6	0.211408	-5.9400001	-0.25999999	-2.967
33	1	4	-0.222552	-6.4089999	0.46799999	-1.054
34	1	6	0.210894	-7.2989998	-0.14	-0.96399999
35	1	4	-0.21547499	-6.0180001	1.3660001	0.048999999
36	1	6	0.211408	-6.6209998	1.408	0.94700003
37	1	4	-0.236076	-4.9190001	2.1229999	-0.057999998
38	1	6	0.203858	-4.6399999	2.7709999	0.764
39	1	7	0.117468	-2.954	3.74	-0.60000002
40	1	1	-0.127261	1.845	0.61799997	0.92000002
41	1	2	0.024855001	3.148	0.70099998	0.41100001
42	1	2	0.096879996	4.1529999	0.17200001	1.434
43	1	8	-0.67623001	5.461	0.31799999	0.95200002
44	1	9	0.39856699	5.5970001	-0.40000001	0.27900001
45	1	3	0.097796001	4.0549998	0.75199997	2.3759999
46	1	3	0.097796001	3.941	-0.89700001	1.663
47	1	3	0.100397	3.3759999	1.766	0.192
48	1	3	0.100397	3.23	0.12800001	-0.54100001
49	1	4	0.542472	-1.221	1.39	1.13
50	1	5	-0.50560302	-2.082	0.54900002	0.91799998
51	1	2	-0.338732	-0.186	1.194	2.2249999
52	1	4	0.80132997	-0.84899998	0.66799998	3.4879999
53	1	5	-0.51479	-0.76700002	1.295	4.5799999
54	1	8	-0.65890002	-1.522	-0.55000001	3.4530001
55	1	9	0.41224501	-1.957	-0.92900002	4.2859998
56	1	4	0.108812	0.514	2.5039999	2.4519999
57	1	4	-0.084840998	-0.011	3.648	2.921
58	1	6	0.20103399	-1.0470001	3.6989999	3.23
59	1	4	-0.26541901	0.85299999	4.8509998	2.9990001
60	1	6	0.20606001	0.45199999	5.7750001	3.3940001
61	1	4	-0.24492399	2.128	4.7969999	2.573
62	1	6	0.20606001	2.7550001	5.677	2.625
63	1	4	-0.20792	2.674	3.5350001	2.0179999
64	1	6	0.205364	3.688	3.494	1.642
65	1	4	-0.084389001	1.882	2.457	1.979
66	1	2	-0.160831	2.2130001	1.133	1.406
67	1	7	0.129995	3.158	0.74299997	1.8430001
68	1	7	0.129995	2.3340001	1.238	0.30899999
69	1	2	0.116835	1.003	0.248	1.8049999
70	1	4	-0.187317	0.66100001	-0.81199998	0.764
71	1	4	-0.236076	0.461	-2.0899999	1.1440001
72	1	6	0.203858	0.55400002	-2.3829999	2.1819999
73	1	4	-0.21547499	0.11	-3.1240001	0.149
74	1	6	0.211408	-0.037	-4.1479998	0.46700001
75	1	4	-0.222552	-0.028000001	-2.7969999	-1.14
76	1	6	0.210894	-0.28600001	-3.5539999	-1.869
77	1	4	-0.21547499	0.16500001	-1.399	-1.5700001
78	1	6	0.211408	0.034000002	-1.1339999	-2.6110001
79	1	4	-0.236076	0.48699999	-0.458	-0.67400002
80	1	6	0.203858	0.59600002	0.56599998	-1.005
81	1	7	0.117468	1.348	-0.28	2.727

Bonds

1	1	1	2
2	2	1	40
3	3	2	3
4	4	2	7
5	4	2	8
6	1	3	4
7	4	3	5
8	4	3	6
9	5	4	9
10	6	9	10
11	7	9	11
12	7	11	12
13	8	11	14
14	3	11	27
15	6	12	13
16	9	12	49
17	10	14	15
18	10	14	23
19	11	15	16
20	10	15	17
21	11	17	18
22	10	17	19
23	11	19	20
24	10	19	21
25	11	21	22
26	10	21	23
27	8	23	24
28	4	24	25
29	4	24	26
30	3	24	27
31	8	27	28
32	4	27	39
33	10	28	29
34	10	28	37
35	11	29	30
36	10	29	31
37	11	31	32
38	10	31	33
39	11	33	34
40	10	33	35
41	11	35	36
42	10	35	37
43	11	37	38
44	1	40	41
45	3	41	42
46	4	41	47
47	4	41	48
48	12	42	43
49	4	42	45
50	4	42	46
51	13	43	44
52	6	49	50
53	7	49	51
54	7	51	52
55	8	51	56
56	3	51	69
57	6	52	53
58	14	52	54
59	13	54	55
60	10	56	57
61	10	56	65
62	11	57	58
63	10	57	59
64	11	59	60
65	10	59	61
66	11	61	62
67	10	61	63
68	11	63	64
69	10	63	65
70	8	65	66
71	4	66	67
72	4	66	68
73	3	66	69
74	8	69	70
75	4	69	81
76	10	70	71
77	10	70	79
78	11	71	72
79	10	71	73
80	11	73	74
81	10	73	75
82	11	75	76
83	10	75	77
84	11	77	78
85	10	77	79
86	11	79	80

Angles

1	4	31	33	35
2	1	3	2	8
3	1	26	24	27
4	7	77	79	80
5	4	51	56	65
6	4	57	59	61
7	1	40	41	47
8	4	61	63	65
9	3	4	9	10
10	1	2	3	4
11	2	3	4	9
12	1	14	11	27
13	7	71	73	74
14	2	2	1	40
15	4	12	49	50
16	1	41	42	45
17	4	73	75	77
18	7	36	35	37
19	6	63	65	66
20	5	7	2	8
21	7	56	57	58
22	5	67	66	68
23	4	14	23	24
24	7	73	75	76
25	4	15	17	19
26	6	11	14	15
27	7	30	29	31
28	7	59	61	62
29	7	15	17	18
30	4	27	28	37
31	4	11	12	13
32	4	70	71	73
33	1	42	41	47
34	1	41	42	43
35	4	56	65	66
36	2	52	54	55
37	7	58	57	59
38	4	14	15	17
39	2	42	43	44
40	5	5	3	6
41	1	41	42	46
42	1	43	42	46
43	4	51	52	54
44	5	25	24	26
45	4	12	49	51
46	7	17	19	20
47	7	29	31	32
48	1	23	24	25
49	1	1	2	7
50	6	51	56	57
51	7	33	35	36
52	1	51	69	66
53	1	2	3	6
54	1	49	51	52
55	1	43	42	45
56	4	51	52	53
57	4	56	57	59
58	7	72	71	73
59	4	59	61	63
60	4	28	29	31
61	1	25	24	27
62	4	15	14	23
63	1	52	51	56
64	4	19	21	23
65	1	12	11	14
66	7	22	21	23
67	4	17	19	21
68	7	34	33	35
69	1	52	51	69
70	7	62	61	63
71	1	65	66	67
72	4	28	37	35
73	1	12	11	27
74	1	40	41	48
75	4	29	28	37
76	4	11	14	23
77	4	4	9	11
78	4	29	31	33
79	1	4	3	6
80	1	65	66	68
81	1	3	2	7
82	4	56	65	63
83	1	9	11	14
84	7	20	19	21
85	4	70	79	77
86	4	71	73	75
87	1	9	11	27
88	2	1	40	41
89	7	14	15	16
90	7	28	37	38
91	7	19	21	22
92	4	50	49	51
93	4	27	28	29
94	1	56	51	69
95	7	70	71	72
96	4	14	23	21
97	1	24	27	39
98	1	24	27	28
99	7	57	59	60
100	7	76	75	77
101	7	28	29	30
102	5	45	42	46
103	7	60	59	61
104	7	16	15	17
105	1	49	51	56
106	1	42	41	48
107	4	75	77	79
108	1	49	51	69
109	7	70	79	80
110	1	23	24	26
111	1	40	41	42
112	1	70	69	81
113	1	66	69	70
114	4	69	70	79
115	1	1	2	3
116	1	51	69	70
117	3	53	52	54
118	7	75	77	78
119	7	61	63	64
120	7	78	77	79
121	1	2	3	5
122	1	28	27	39
123	1	1	2	8
124	4	11	12	49
125	5	47	41	48
126	1	23	24	27
127	1	67	66	69
128	4	33	35	37
129	7	35	37	38
130	6	21	23	24
131	4	71	70	79
132	1	11	27	39
133	1	11	27	28
134	4	13	12	49
135	7	64	63	65
136	1	68	66	69
137	1	9	11	12
138	4	57	56	65
139	1	4	3	5
140	4	10	9	11
141	1	65	66	69
142	7	31	33	34
143	7	32	31	33
144	1	66	69	81
145	7	74	73	75
146	1	11	27	24
147	7	18	17	19
148	1	51	69	81
149	4	69	70	71

Dihedrals

1	7	2	3	4	9
1	8	2	3	4	9
2	3	43	42	41	47
2	4	43	42	41	47
3	13	46	42	41	47
4	1	1	2	3	4
4	2	1	2	3	4
5	12	54	52	51	56
6	17	15	17	19	20
7	14	10	9	11	12
8	17	60	59	61	62
9	17	17	15	14	23
10	17	61	63	65	66
11	15	56	51	69	70
12	12	54	52	51	69
13	15	52	51	69	70
14	17	51	56	65	66
15	13	67	66	69	81
16	12	65	56	51	69
17	19	41	42	43	44
17	20	41	42	43	44
18	17	59	57	56	65
19	13	45	42	41	47
20	12	12	11	14	15
21	15	49	51	69	70
22	17	74	73	75	77
23	17	11	14	23	24
24	17	20	19	21	23
25	17	28	37	35	33
26	17	70	71	73	75
27	18	51	69	66	67
28	12	24	27	28	29
29	17	15	17	19	21
30	17	31	29	28	37
31	12	11	27	28	37
32	17	16	15	17	19
33	13	6	3	2	8
34	17	32	31	33	35
35	18	11	27	24	25
36	17	59	61	63	65
37	17	70	79	77	75
38	17	11	14	15	16
39	17	16	15	17	18
40	17	34	33	35	36
41	17	74	73	75	76
42	15	9	11	27	39
43	15	9	11	27	28
44	21	44	43	42	46
45	18	51	69	66	68
46	17	16	15	14	23
47	17	15	14	23	21
48	15	23	24	27	39
49	15	23	24	27	28
50	17	62	61	63	64
51	6	2	1	40	41
52	11	3	4	9	11
53	15	9	11	27	24
54	3	4	3	2	7
54	4	4	3	2	7
55	17	56	65	63	64
56	17	33	35	37	38
57	12	12	49	51	56
58	5	7	2	1	40
59	15	56	51	69	81
60	21	44	43	42	45
61	15	52	51	69	81
62	12	21	23	24	26
63	12	4	9	11	14
64	17	60	59	61	63
65	12	57	56	51	69
66	17	31	33	35	37
67	12	12	49	51	69
68	15	14	11	27	39
69	15	14	11	27	28
70	12	51	69	70	79
71	12	4	9	11	27
72	17	72	71	73	74
73	15	49	51	69	81
74	12	52	51	56	65
75	17	20	19	21	22
76	12	56	65	66	69
77	1	40	41	42	43
77	2	40	41	42	43
78	3	1	2	3	6
78	4	1	2	3	6
79	17	56	57	59	60
80	17	71	73	75	77
81	17	28	29	31	32
82	15	14	11	27	24
83	12	23	14	11	27
84	14	50	49	51	52
85	12	49	51	56	65
86	17	14	23	21	22
87	17	51	56	65	63
88	12	63	65	66	67
89	17	72	71	70	79
90	16	11	12	49	50
91	3	40	41	42	46
91	4	40	41	42	46
92	5	5	3	4	9
93	17	69	70	71	73
94	17	19	21	23	24
95	12	14	11	12	49
96	15	65	66	69	81
97	17	27	28	37	38
98	17	71	73	75	76
99	17	76	75	77	79
100	12	66	69	70	79
101	12	12	11	14	23
102	17	51	56	57	58
103	17	73	75	77	79
104	15	68	66	69	70
105	13	5	3	2	7
106	12	49	51	52	54
107	17	28	37	35	36
108	12	63	65	66	68
109	17	22	21	23	24
110	3	40	41	42	45
110	4	40	41	42	45
111	17	15	14	23	24
112	5	1	40	41	48
113	17	76	75	77	78
114	17	57	59	61	62
115	13	46	42	41	48
116	22	51	52	54	55
117	12	14	23	24	25
118	3	1	2	3	5
118	4	1	2	3	5
119	17	58	57	56	65
120	17	73	75	77	78
121	17	62	61	63	65
122	17	14	15	17	19
123	17	28	29	31	33
124	14	49	51	52	53
125	9	3	4	9	10
125	10	3	4	9	10
126	17	29	28	37	35
127	17	14	15	17	18
128	17	36	35	37	38
129	13	45	42	41	48
130	18	11	27	24	26
131	12	51	69	70	71
132	16	13	12	49	50
133	17	18	17	19	20
134	17	11	14	15	17
135	15	67	66	69	70
136	12	9	11	12	49
137	17	30	29	31	32
138	17	17	19	21	22
139	17	58	57	59	61
140	17	70	71	73	74
141	12	29	28	27	39
142	12	4	9	11	12
143	14	53	52	51	56
144	12	11	27	28	29
145	16	11	12	49	51
146	12	21	23	24	27
147	12	52	51	56	57
148	15	56	51	69	66
149	14	53	52	51	69
150	17	64	63	65	66
151	17	78	77	79	80
152	15	52	51	69	66
153	13	68	66	69	81
154	13	25	24	27	39
155	15	25	24	27	28
156	12	9	11	14	15
157	17	51	56	57	59
158	17	17	19	21	23
159	5	6	3	4	9
160	17	29	28	37	38
161	17	34	33	35	37
162	14	50	49	51	56
163	15	51	69	66	65
164	17	56	65	63	61
165	23	53	52	54	55
165	24	53	52	54	55
166	12	66	69	70	71
167	5	1	40	41	42
168	17	18	17	19	21
169	14	10	9	11	14
170	12	24	27	28	37
171	12	49	51	56	57
172	14	50	49	51	69
173	17	56	57	59	61
174	15	49	51	69	66
175	17	75	77	79	80
176	15	11	27	24	23
177	14	13	12	11	14
178	17	27	28	29	31
179	3	4	3	2	8
179	4	4	3	2	8
180	13	6	3	2	7
181	17	70	79	77	78
182	17	57	59	61	63
183	14	10	9	11	27
184	12	9	11	14	23
185	14	13	12	11	27
186	3	43	42	41	48
186	4	43	42	41	48
187	5	8	2	1	40
188	17	30	29	31	33
189	17	29	31	33	34
190	17	31	33	35	36
191	16	13	12	49	51
192	17	73	71	70	79
193	17	69	70	79	77
194	17	30	29	28	37
195	17	29	31	33	35
196	12	79	70	69	81
197	17	71	70	79	77
198	17	72	71	73	75
199	13	26	24	27	39
200	15	26	24	27	28
201	17	32	31	33	34
202	12	56	65	66	67
203	12	14	23	24	26
204	12	63	65	66	69
205	12	37	28	27	39
206	17	69	70	71	72
207	12	15	14	11	27
208	15	12	11	27	39
209	15	12	11	27	28
210	17	11	14	23	21
211	13	5	3	2	8
212	12	21	23	24	25
213	17	57	56	65	66
214	17	59	61	63	64
215	12	56	65	66	68
216	17	69	70	79	80
217	15	65	66	69	70
218	15	12	11	27	24
219	12	12	49	51	52
220	17	27	28	29	30
221	17	71	70	79	80
222	12	14	23	24	27
223	12	71	70	69	81
224	5	3	2	1	40
225	14	9	11	12	13
226	17	57	56	65	63
227	17	58	57	59	60
228	17	14	23	21	19
229	5	1	40	41	47
230	17	27	28	37	35
231	12	27	11	12	49

Impropers

7	2	14	23	11	15
19	2	21	22	23	19
27	2	37	38	28	35
32	2	19	21	17	20
35	2	70	69	71	79
43	2	29	31	28	30
47	2	75	73	76	77
49	2	75	76	77	73
56	2	63	61	64	65
64	2	73	74	75	71
81	2	59	61	57	60
85	2	71	70	72	73
88	2	28	37	27	29
92	2	37	28	35	38
95	2	31	33	29	32
96	2	17	19	15	18
98	2	61	62	63	59
101	2	63	65	61	64
105	2	19	20	21	17
116	2	56	57	65	51
118	2	37	35	38	28
120	1	9	10	11	4
121	2	28	29	37	27
126	2	15	16	17	14
134	2	29	30	31	28
136	2	57	58	59	56
140	1	52	54	51	53
144	2	65	56	63	66
162	2	33	34	35	31
167	2	21	19	22	23
168	2	79	77	80	70
176	2	65	63	66	56
179	2	29	28	30	31
182	2	49	12	50	51
191	2	14	11	15	23
196	2	17	15	18	19
200	2	61	59	62	63
202	2	61	63	59	62
203	2	65	66	56	63
212	2	57	59	56	58
216	2	15	17	14	16
224	2	79	80	70	77
227	2	57	56	58	59
232	1	52	53	54	51
237	2	31	29	32	33
238	2	19	17	20	21
243	2	17	18	19	15
249	1	52	51	53	54
252	2	59	60	61	57
261	2	56	65	51	57
264	2	28	27	29	37
265	2	75	77	73	76
271	2	73	75	71	74
273	2	59	57	60	61
278	2	73	71	74	75
283	2	63	64	65	61
285	2	12	13	49	11
288	2	77	75	78	79
293	2	14	15	23	11
300	2	12	11	13	49
305	2	21	23	19	22
309	2	31	32	33	29
311	2	35	37	33	36
315	2	33	35	31	34
319	2	79	70	77	80
324	2	56	51	57	65
331	2	70	71	79	69
337	2	15	14	16	17
338	2	71	73	70	72
339	2	49	51	12	50
349	2	35	33	36	37
356	2	12	49	11	13
362	2	70	79	69	71
363	2	23	14	21	24
366	2	77	78	79	75
367	2	23	21	24	14
369	2	71	72	73	70
373	2	49	50	51	12
375	2	77	79	75	78
378	2	23	24	14	21
390	1	9	4	10	11
398	2	35	36	37	33
400	1	9	11	4	10
401	2	33	31	34	35
