Title

114 atoms
119 bonds
198 angles
329 dihedrals
132 impropers

12 atom types
18 bond types
10 angle types
30 dihedral types
3 improper types
-13.89400005 86.10599995 xlo xhi
-11.66100025 88.33899975 ylo yhi
-2.861000061 97.13899994 zlo zhi
0.0 0.0 0.0 xy xz yz

Masses

1	12.01078
2	15.99943
3	14.00672
4	1.007947
5	12.01078
6	1.007947
7	1.007947
8	15.99943
9	1.007947
10	12.01078
11	15.99943
12	1.007947


Pair Coeffs

1	0.086879315	3.4806469
2	0.2102061	3.0398122
3	0.16769152	3.206876
4	0.015611343	2.5725815
5	0.10884061	3.3795318
6	0.014090815	1.1034277
7	0.015779483	2.6445434
8	0.16846514	3.0251065
9	0.016409246	2.5832257
10	0.21	3.3996695
11	0.20947353	2.99716
12	1.2326e-05	0.53453923

Bond Coeffs

1 harmonic	582.698766451	1.225198386222
2 harmonic	492.76746816345	1.381897776683
3 harmonic	279.1350963404	1.454628925034
4 harmonic	390.03554688505	1.390160554689
5 harmonic	505.144496193	1.019481865027
6 harmonic	360.7852444772	1.387193227181
7 harmonic	397.2545789619	1.085358495916
8 harmonic	289.73813263395	1.498646816465
9 harmonic	370.04670688625	1.093899492634
10 harmonic	301.15400723785	1.345741232799
11 harmonic	366.7408841747	1.425895053732
12 harmonic	264.62148576755	1.52190126495
13 harmonic	366.34047229585	1.464762957261
14 harmonic	300.03137914615	1.451203938761
15 harmonic	382.5450169811	1.379244394267
16 harmonic	602.81384337	1.196112346392
17 harmonic	329.96998057905	1.427343958716
18 harmonic	543.5267831885	0.9716763312559


Angle Coeffs

1 harmonic	55.42182150775	117.3465570514
2 harmonic	63.44422595415	115.5071327674
3 harmonic	57.8982893754	126.8062420451
4 harmonic	34.066775159195	129.1835929926
5 harmonic	53.20531626545	116.5475862634
6 harmonic	65.09061609600001	110.3538806181
7 harmonic	201.41175231035	127.4691416191
8 harmonic	48.776492647595	115.6030999533
9 harmonic	55.07882548015	112.8714009681
10 harmonic	33.56981613361	180


Dihedral Coeffs

1 fourier 1	1.193093382682	2	180
2 fourier 1	1.809047390003	2	180
3 fourier 1	-0.04816277792592	1	0
4 fourier 1	3.101948770557	2	180
5 fourier 1	-0.4252153282372	1	0
6 fourier 1	2.348375642009	2	180
7 fourier 1	1.256156174911	1	0
8 fourier 1	0.9974165607242	2	180
9 fourier 1	3.661930099076	2	180
10 fourier 1	0.02664938770063	3	0
11 fourier 1	2.779853741805	2	180
12 fourier 1	0.1918272375143	3	0
13 fourier 1	0.9202179876409	1	180
14 fourier 1	0.0473758381877	3	0
15 fourier 1	0.4860993122944	2	180
16 fourier 1	0.8916986138746	1	0
17 fourier 1	1.163809172478	2	180
18 fourier 1	0.1679186987369	1	180
19 fourier 1	0.1155372516788	3	0
20 fourier 1	0.1115525666802	3	0
21 fourier 1	0.3432490222662	1	0
22 fourier 1	0.182238503271	2	0
23 fourier 1	0.02972342374561	3	0
24 fourier 1	0.457973137376	1	0
25 fourier 1	0.1911926717192	3	0
26 fourier 1	1.550515418264	2	180
27 fourier 1	0	1	0
28 fourier 1	0.3445382149273	3	0
29 fourier 1	0.1364556373303	1	0
30 fourier 1	0.3026390167484	3	0


Improper Coeffs

1 0.3333333333333333	-1	2
2 0.3666666666666667	-1	2
3 3.5	-1	2


Atoms

1	1	1	0.57223201	5.5349998	-0.74699998	1.5319999
2	1	2	-0.60457999	5.362	0.024	2.513
3	1	3	-0.50664598	4.6830001	-0.69	0.382
4	1	1	0.20801	3.4579999	0.059999999	0.31900001
5	1	1	-0.376883	3.0510001	0.56800002	-0.85600001
6	1	4	0.21897499	3.651	0.43599999	-1.748
7	1	1	-0.13954601	1.788	1.33	-0.949
8	1	4	0.21712901	1.4859999	1.73	-1.909
9	1	1	-0.24321599	1.028	1.518	0.14300001
10	1	5	-0.049998999	-0.28	2.257	0.052000001
11	1	1	-0.24321599	-1.397	1.299	-0.25999999
12	1	1	-0.13954601	-1.729	1.021	-1.5319999
13	1	4	0.21712901	-1.214	1.502	-2.355
14	1	1	-0.36476099	-2.799	0.046	-1.8279999
15	1	4	0.21897499	-3.056	-0.154	-2.8610001
16	1	1	0.231773	-3.4289999	-0.60000002	-0.833
17	1	3	-0.469069	-4.474	-1.538	-1.145
18	1	1	0.81962103	-4.776	-2.697	-0.359
19	1	2	-0.54701	-4.0100002	-3.0810001	0.56300002
20	1	6	0.326547	-5.0029998	-1.419	-2.0380001
21	1	1	-0.36476099	-3.0680001	-0.28400001	0.574
22	1	4	0.21897499	-3.598	-0.74699998	1.396
23	1	1	-0.13954601	-2.105	0.60600001	0.84200001
24	1	4	0.21712901	-1.855	0.829	1.872
25	1	7	0.127177	-0.486	2.7709999	1.015
26	1	7	0.127177	-0.223	3.0550001	-0.722
27	1	1	-0.13954601	1.45	0.921	1.433
28	1	4	0.21712901	0.824	1.028	2.3099999
29	1	1	-0.376883	2.5940001	0.23100001	1.517
30	1	4	0.21897499	2.862	-0.227	2.4590001
31	1	6	0.322611	5.0229998	-1.169	-0.48300001
32	1	8	-0.49013999	-5.6240001	-3.2539999	-0.57800001
33	1	5	0.124603	-5.947	-3.9630001	0.58700001
34	1	5	0.15730301	-5.006	-5.1609998	0.75599998
35	1	3	-0.65622902	-5.2909999	-5.8740001	2.0120001
36	1	1	0.28339601	-4.6129999	-5.513	3.2520001
37	1	1	-0.42099899	-4.619	-6.3369999	4.3260002
38	1	4	0.22266801	-5.1160002	-7.2950001	4.309
39	1	1	-0.123161	-3.9260001	-5.9650002	5.5760002
40	1	4	0.22798499	-3.944	-6.6399999	6.4219999
41	1	1	-0.267095	-3.277	-4.8010001	5.665
42	1	4	0.22517	-2.7690001	-4.5289998	6.5809999
43	1	1	-0.123161	-3.2539999	-3.885	4.5120001
44	1	4	0.22798499	-2.73	-2.941	4.5890002
45	1	1	-0.42099899	-3.8800001	-4.2150002	3.3759999
46	1	4	0.22266801	-3.8440001	-3.5109999	2.5580001
47	1	5	0.159045	-6.296	-6.9499998	1.96
48	1	5	0.042366002	-5.6350002	-8.2939997	1.635
49	1	8	-0.121371	-6.5929999	-9.3170004	1.637
50	1	9	0.110633	-5.177	-8.2419996	0.625
51	1	9	0.110633	-4.822	-8.526	2.358
52	1	9	0.090515003	-6.8639998	-7.0040002	2.9130001
53	1	9	0.090515003	-7.0500002	-6.73	1.1720001
54	1	9	0.091950998	-5.145	-5.8439999	-0.11
55	1	9	0.091950998	-3.9430001	-4.8410001	0.72000003
56	1	9	0.104354	-5.9029999	-3.2920001	1.472
57	1	9	0.104354	-6.9920001	-4.3280001	0.498
58	1	1	0.57223201	6.368	-1.437	1.544
59	1	2	-0.60457999	6.388	-2.3900001	0.722
60	1	3	-0.50664598	7.4499998	-1.219	2.46
61	1	1	0.20801	8.54	-2.135	2.668
62	1	1	-0.376883	8.3599997	-3.4690001	2.635
63	1	4	0.21897499	7.3829999	-3.8970001	2.4590001
64	1	1	-0.13954601	9.4940004	-4.382	2.888
65	1	4	0.21712901	9.323	-5.4510002	2.859
66	1	1	-0.24321599	10.715	-3.8900001	3.1589999
67	1	5	-0.049998999	11.866	-4.8099999	3.46
68	1	1	-0.257521	11.912	-5.1230001	4.9310002
69	1	1	-0.18472099	12.587	-4.3309999	5.7820001
70	1	4	0.203352	13.132	-3.4679999	5.4190001
71	1	1	-0.256015	12.591	-4.6220002	7.23
72	1	4	0.210875	13.153	-3.9690001	7.8860002
73	1	1	0.44248399	11.905	-5.6789999	7.7150002
74	1	3	-0.33758399	11.875	-6.0050001	9.1140003
75	1	10	0.61552101	12.482	-5.3439999	10.018
76	1	2	-0.29119599	13.072	-4.7020001	10.897
77	1	1	-0.256015	11.15	-6.539	6.777
78	1	4	0.210875	10.59	-7.3850002	7.1550002
79	1	1	-0.18472099	11.15	-6.277	5.4640002
80	1	4	0.203352	10.588	-6.9130001	4.7919998
81	1	7	0.127177	11.77	-5.7529998	2.8770001
82	1	7	0.127177	12.821	-4.3400002	3.1359999
83	1	1	-0.13954601	10.906	-2.4219999	3.233
84	1	4	0.21712901	11.878	-2.0120001	3.4760001
85	1	1	-0.376883	9.8789997	-1.595	3.0039999
86	1	4	0.21897499	10.03	-0.52499998	3.0610001
87	1	6	0.322611	7.4949999	-0.287	2.9289999
88	1	8	-0.121371	-6.7870002	-9.5220003	2.5880001
89	1	5	0.042366002	-8.0109997	-10.204	2.609
90	1	5	0.160208	-9.1689997	-9.2200003	2.4170001
91	1	3	-0.64798599	-10.456	-9.9329996	2.3670001
92	1	1	0.285101	-11.006	-10.404	1.102
93	1	1	-0.42099899	-12.304	-10.773	0.98900002
94	1	4	0.22266801	-12.986	-10.726	1.824
95	1	1	-0.123161	-12.853	-11.245	-0.29899999
96	1	4	0.22798499	-13.894	-11.533	-0.36500001
97	1	1	-0.267095	-12.071	-11.315	-1.378
98	1	4	0.22517	-12.474	-11.661	-2.3210001
99	1	1	-0.123161	-10.655	-10.921	-1.285
100	1	4	0.22798499	-10.023	-10.982	-2.1619999
101	1	1	-0.42099899	-10.15	-10.492	-0.122
102	1	4	0.22266801	-9.1049995	-10.22	-0.096000001
103	1	5	0.128143	-11.148	-10.158	3.6489999
104	1	5	0.088404998	-12.088	-8.9919996	3.97
105	1	11	-0.66747499	-12.777	-9.2390003	5.164
106	1	12	0.40593299	-13.492	-9.8950005	4.9489999
107	1	9	0.104355	-11.491	-8.0640001	4.0939999
108	1	9	0.104355	-12.807	-8.816	3.1389999
109	1	9	0.097254999	-11.7	-11.123	3.6329999
110	1	9	0.097254999	-10.406	-10.248	4.4720001
111	1	9	0.090515003	-9.1639996	-8.5	3.2650001
112	1	9	0.090515003	-9.0249996	-8.6079998	1.501
113	1	9	0.110633	-8.0240002	-10.996	1.827
114	1	9	0.110633	-8.1169996	-10.707	3.5929999

Bonds

1	1	1	2
2	2	1	3
3	3	1	58
4	4	3	4
5	5	3	31
6	6	4	5
7	6	4	29
8	7	5	6
9	6	5	7
10	7	7	8
11	6	7	9
12	8	9	10
13	6	9	27
14	8	10	11
15	9	10	25
16	9	10	26
17	6	11	12
18	6	11	23
19	7	12	13
20	6	12	14
21	7	14	15
22	6	14	16
23	4	16	17
24	6	16	21
25	2	17	18
26	5	17	20
27	1	18	19
28	10	18	32
29	7	21	22
30	6	21	23
31	7	23	24
32	7	27	28
33	6	27	29
34	7	29	30
35	11	32	33
36	12	33	34
37	9	33	56
38	9	33	57
39	13	34	35
40	9	34	54
41	9	34	55
42	4	35	36
43	13	35	47
44	6	36	37
45	6	36	45
46	7	37	38
47	6	37	39
48	7	39	40
49	6	39	41
50	7	41	42
51	6	41	43
52	7	43	44
53	6	43	45
54	7	45	46
55	12	47	48
56	9	47	52
57	9	47	53
58	11	48	49
59	9	48	50
60	9	48	51
61	14	49	88
62	1	58	59
63	2	58	60
64	4	60	61
65	5	60	87
66	6	61	62
67	6	61	85
68	7	62	63
69	6	62	64
70	7	64	65
71	6	64	66
72	8	66	67
73	6	66	83
74	8	67	68
75	9	67	81
76	9	67	82
77	6	68	69
78	6	68	79
79	7	69	70
80	6	69	71
81	7	71	72
82	6	71	73
83	15	73	74
84	6	73	77
85	16	74	75
86	1	75	76
87	7	77	78
88	6	77	79
89	7	79	80
90	7	83	84
91	6	83	85
92	7	85	86
93	11	88	89
94	12	89	90
95	9	89	113
96	9	89	114
97	13	90	91
98	9	90	111
99	9	90	112
100	4	91	92
101	13	91	103
102	6	92	93
103	6	92	101
104	7	93	94
105	6	93	95
106	7	95	96
107	6	95	97
108	7	97	98
109	6	97	99
110	7	99	100
111	6	99	101
112	7	101	102
113	12	103	104
114	9	103	109
115	9	103	110
116	17	104	105
117	9	104	107
118	9	104	108
119	18	105	106

Angles

1	3	3	1	58
2	3	16	21	23
3	4	36	37	38
4	5	89	90	112
5	1	1	3	4
6	4	68	69	70
7	5	88	89	113
8	5	103	104	108
9	3	17	18	32
10	3	7	9	10
11	4	28	27	29
12	5	66	67	82
13	6	49	88	89
14	4	12	14	15
15	3	62	64	66
16	3	91	92	101
17	4	94	93	95
18	5	9	10	11
19	8	52	47	53
20	8	50	48	51
21	3	67	66	83
22	4	98	97	99
23	3	60	61	62
24	4	63	62	64
25	4	43	45	46
26	3	1	58	60
27	2	18	17	20
28	3	39	41	43
29	1	36	35	47
30	3	11	12	14
31	4	84	83	85
32	3	3	4	5
33	5	48	47	53
34	4	93	95	96
35	4	37	39	40
36	3	5	7	9
37	4	73	77	78
38	5	33	34	54
39	2	61	60	87
40	4	100	99	101
41	4	6	5	7
42	5	91	90	111
43	4	4	5	6
44	3	3	4	29
45	4	11	23	24
46	5	104	103	109
47	4	9	27	28
48	6	18	32	33
49	5	47	48	50
50	4	97	99	100
51	5	11	10	26
52	5	103	104	105
53	4	4	29	30
54	5	90	89	114
55	5	35	47	52
56	1	16	17	18
57	4	96	95	97
58	3	36	45	43
59	3	67	68	69
60	3	93	92	101
61	3	2	1	3
62	4	61	62	63
63	3	69	71	73
64	1	34	35	36
65	5	9	10	25
66	3	97	99	101
67	10	74	75	76
68	5	32	33	57
69	1	34	35	47
70	4	44	43	45
71	3	95	97	99
72	5	91	90	112
73	3	62	61	85
74	8	113	89	114
75	3	36	37	39
76	5	88	89	90
77	5	68	67	81
78	8	111	90	112
79	5	47	48	51
80	3	9	27	29
81	4	70	69	71
82	4	16	21	22
83	3	68	69	71
84	5	91	103	110
85	4	40	39	41
86	3	17	16	21
87	5	35	34	55
88	4	41	43	44
89	2	58	60	87
90	3	12	11	23
91	5	33	34	55
92	4	92	93	94
93	4	78	77	79
94	3	10	11	12
95	4	39	41	42
96	3	60	61	85
97	5	103	104	107
98	4	8	7	9
99	1	90	91	103
100	3	1	58	59
101	3	61	85	83
102	4	77	79	80
103	3	4	5	7
104	4	38	37	39
105	5	48	47	52
106	2	4	3	31
107	5	66	67	81
108	4	13	12	14
109	3	17	18	19
110	3	92	93	95
111	3	73	77	79
112	5	33	34	35
113	5	47	48	49
114	4	92	101	102
115	3	37	36	45
116	3	93	95	97
117	5	89	90	111
118	2	1	3	31
119	4	95	97	98
120	3	12	14	16
121	8	54	34	55
122	4	66	83	84
123	1	58	60	61
124	4	62	64	65
125	2	16	17	20
126	3	14	16	21
127	3	35	36	45
128	4	42	41	43
129	3	74	73	77
130	9	73	74	75
131	3	4	29	27
132	5	105	104	107
133	8	81	67	82
134	5	90	89	113
135	5	9	10	26
136	4	21	23	24
137	4	15	14	16
138	3	91	92	93
139	5	11	10	25
140	3	35	36	37
141	3	64	66	67
142	4	99	101	102
143	3	69	68	79
144	3	64	66	83
145	5	49	48	50
146	7	19	18	32
147	5	32	33	34
148	3	67	68	79
149	3	14	16	17
150	3	59	58	60
151	4	65	64	66
152	5	91	103	109
153	3	71	73	77
154	1	92	91	103
155	5	89	90	91
156	8	25	10	26
157	6	104	105	106
158	3	61	62	64
159	6	48	49	88
160	5	34	33	56
161	4	61	85	86
162	3	92	101	99
163	3	10	9	27
164	4	72	71	73
165	4	27	29	30
166	8	56	33	57
167	5	35	47	48
168	3	37	39	41
169	4	11	12	13
170	4	36	45	46
171	4	22	21	23
172	5	49	48	51
173	4	68	79	80
174	3	41	43	45
175	4	5	7	8
176	3	10	11	23
177	4	83	85	86
178	3	68	79	77
179	5	91	103	104
180	5	88	89	114
181	3	2	1	58
182	5	35	34	54
183	3	7	9	27
184	5	32	33	56
185	3	5	4	29
186	5	105	104	108
187	5	104	103	110
188	5	35	47	53
189	5	66	67	68
190	1	90	91	92
191	3	11	23	21
192	3	71	73	74
193	5	68	67	82
194	3	66	83	85
195	4	69	71	72
196	8	109	103	110
197	5	34	33	57
198	8	107	104	108

Dihedrals

1	9	61	85	83	84
2	9	68	69	71	72
3	1	101	92	91	103
4	9	63	62	61	85
5	22	89	90	91	103
5	23	89	90	91	103
6	25	107	104	103	109
7	8	2	1	58	60
8	10	23	11	10	26
9	9	38	37	36	45
10	25	107	104	103	110
11	10	66	67	68	79
12	9	5	7	9	10
13	8	3	1	58	60
14	22	47	35	34	55
14	23	47	35	34	55
15	22	34	35	47	53
15	23	34	35	47	53
16	1	93	92	91	103
17	9	36	45	43	41
18	9	9	27	29	30
19	22	90	91	103	110
19	23	90	91	103	110
20	9	70	69	71	73
21	10	7	9	10	25
22	9	37	36	45	46
23	10	64	66	67	82
24	9	4	5	7	8
25	9	68	79	77	73
26	9	71	73	77	78
27	9	93	92	101	99
28	10	9	10	11	23
29	9	61	62	64	66
30	1	62	61	60	87
31	22	103	91	90	112
31	23	103	91	90	112
32	9	11	12	14	16
33	10	81	67	66	83
34	9	35	36	37	38
35	9	3	4	5	7
36	8	2	1	58	59
37	9	71	69	68	79
38	9	98	97	99	100
39	25	55	34	33	57
40	22	34	35	47	52
40	23	34	35	47	52
41	14	18	32	33	56
42	8	3	1	58	59
43	25	54	34	33	57
44	9	60	61	62	63
45	19	91	103	104	105
46	9	11	23	21	16
47	19	35	34	33	56
48	9	7	9	27	29
49	14	49	88	89	114
50	9	8	7	9	27
51	9	96	95	97	98
52	22	92	91	103	104
52	23	92	91	103	104
53	4	2	1	3	4
53	5	2	1	3	4
54	9	71	73	77	79
55	9	62	64	66	67
56	9	39	41	43	44
57	9	92	93	95	97
58	9	10	11	23	24
59	14	50	48	49	88
60	20	105	104	103	110
60	21	105	104	103	110
61	25	51	48	47	53
62	9	12	14	16	21
63	9	62	64	66	83
64	10	12	11	10	26
65	9	98	97	99	101
66	30	106	105	104	108
67	9	5	4	29	27
68	9	84	83	85	86
69	9	12	11	23	24
70	9	63	62	64	65
71	20	105	104	103	109
71	21	105	104	103	109
72	9	40	39	41	43
73	9	73	77	79	80
74	9	35	36	45	46
75	9	35	36	37	39
76	26	71	73	74	75
77	19	35	47	48	50
78	2	16	17	18	32
78	3	16	17	18	32
79	1	58	60	61	85
80	9	67	68	79	80
81	1	90	91	92	93
82	1	20	17	16	21
83	25	51	48	47	52
84	1	14	16	17	18
85	9	67	68	79	77
86	9	8	7	9	10
87	19	35	34	33	57
88	10	25	10	9	27
89	9	65	64	66	67
90	9	14	16	21	23
91	9	12	14	16	17
92	10	68	67	66	83
93	9	69	71	73	74
94	20	32	33	34	55
94	21	32	33	34	55
95	9	39	41	43	45
96	9	62	61	85	83
97	9	65	64	66	83
98	22	36	35	47	48
98	23	36	35	47	48
99	22	90	91	103	109
99	23	90	91	103	109
100	9	4	29	27	28
101	27	73	74	75	76
102	9	68	69	71	73
103	10	69	68	67	82
104	9	92	101	99	100
105	9	4	5	7	9
106	9	94	93	95	96
107	10	7	9	10	26
108	9	61	85	83	66
109	9	62	61	85	86
110	9	72	71	73	77
111	9	13	12	14	16
112	17	19	18	32	33
112	18	19	18	32	33
113	9	95	97	99	101
114	9	3	4	29	30
115	9	10	9	27	29
116	19	35	47	48	51
117	9	91	92	101	102
118	19	32	33	34	35
119	1	85	61	60	87
120	9	78	77	79	80
121	10	26	10	9	27
122	9	22	21	23	24
123	1	34	35	36	45
124	25	112	90	89	114
125	9	36	37	39	40
126	2	4	3	1	58
126	3	4	3	1	58
127	10	82	67	66	83
128	9	67	66	83	84
129	25	50	48	47	53
130	28	103	104	105	106
130	29	103	104	105	106
131	22	92	91	90	111
131	23	92	91	90	111
132	10	79	68	67	81
133	9	10	9	27	28
134	9	42	41	43	44
135	22	47	35	34	54
135	23	47	35	34	54
136	9	74	73	77	78
137	9	94	93	92	101
138	9	14	16	21	22
139	10	79	68	67	82
140	1	1	3	4	5
141	9	38	37	39	41
142	9	68	79	77	78
143	22	36	35	34	55
143	23	36	35	34	55
144	9	10	11	12	13
145	15	19	18	17	20
145	16	19	18	17	20
146	25	111	90	89	114
147	10	64	66	67	81
148	9	6	5	7	8
149	14	49	88	89	113
150	9	69	68	79	80
151	9	10	11	12	14
152	1	29	4	3	31
153	19	35	47	48	49
154	14	18	32	33	57
155	9	69	68	79	77
156	9	72	71	73	74
157	25	50	48	47	52
158	9	37	39	41	43
159	25	112	90	89	113
160	1	37	36	35	47
161	9	67	66	83	85
162	1	1	3	4	29
163	9	60	61	85	83
164	9	64	62	61	85
165	9	11	12	14	15
166	9	95	97	99	100
167	9	64	66	83	84
168	10	66	67	68	69
169	9	74	73	77	79
170	1	14	16	17	20
171	9	60	61	62	64
172	9	91	92	93	95
173	9	93	95	97	99
174	25	108	104	103	110
175	9	61	62	64	65
176	19	91	90	89	114
177	9	60	61	85	86
178	19	91	103	104	107
179	26	75	74	73	77
180	22	92	91	90	112
180	23	92	91	90	112
181	9	42	41	43	45
182	14	49	88	89	90
183	25	108	104	103	109
184	22	103	91	90	111
184	23	103	91	90	111
185	9	16	21	23	24
186	22	34	35	47	48
186	23	34	35	47	48
187	20	49	48	47	53
187	21	49	48	47	53
188	9	70	69	68	79
189	9	95	93	92	101
190	9	100	99	101	102
191	9	67	68	69	70
192	30	106	105	104	107
193	9	11	23	21	22
194	2	1	58	60	61
194	3	1	58	60	61
195	10	23	11	10	25
196	25	55	34	33	56
197	9	63	62	64	66
198	19	88	89	90	91
199	22	89	90	91	92
199	23	89	90	91	92
200	9	35	36	45	43
201	22	36	35	47	53
201	23	36	35	47	53
202	9	39	37	36	45
203	9	7	5	4	29
204	11	17	18	32	33
205	14	47	48	49	88
206	22	92	91	103	110
206	23	92	91	103	110
207	9	15	14	16	21
208	19	91	90	89	113
209	6	2	1	3	31
209	7	2	1	3	31
210	9	14	12	11	23
211	9	17	16	21	23
212	2	16	17	18	19
212	3	16	17	18	19
213	9	28	27	29	30
214	4	59	58	60	61
214	5	59	58	60	61
215	9	94	93	95	97
216	20	88	89	90	111
216	21	88	89	90	111
217	22	90	91	103	104
217	23	90	91	103	104
218	22	92	91	103	109
218	23	92	91	103	109
219	9	4	29	27	9
220	1	45	36	35	47
221	20	49	48	47	52
221	21	49	48	47	52
222	9	3	4	29	27
223	1	34	35	36	37
224	9	92	93	95	96
225	9	37	36	45	43
226	20	32	33	34	54
226	21	32	33	34	54
227	2	31	3	1	58
227	3	31	3	1	58
228	22	36	35	47	52
228	23	36	35	47	52
229	2	1	58	60	87
229	3	1	58	60	87
230	9	3	4	5	6
231	9	91	92	93	94
232	9	93	92	101	102
233	10	7	9	10	11
234	9	44	43	45	46
235	1	5	4	3	31
236	10	11	10	9	27
237	10	69	68	67	81
238	9	6	5	7	9
239	9	13	12	11	23
240	22	33	34	35	36
240	23	33	34	35	36
241	9	40	39	41	42
242	9	38	37	39	40
243	9	67	68	69	71
244	22	33	34	35	47
244	23	33	34	35	47
245	9	15	14	16	17
246	9	93	95	97	98
247	9	97	99	101	102
248	9	6	5	4	29
249	9	5	4	29	30
250	9	36	37	39	41
251	14	51	48	49	88
252	6	59	58	60	87
252	7	59	58	60	87
253	10	12	11	10	25
254	9	5	7	9	27
255	2	20	17	18	32
255	3	20	17	18	32
256	1	58	60	61	62
257	9	69	71	73	77
258	25	111	90	89	113
259	9	13	12	14	15
260	9	10	11	23	21
261	9	36	45	43	44
262	19	91	103	104	108
263	9	17	16	21	22
264	9	37	39	41	42
265	20	88	89	90	112
265	21	88	89	90	112
266	9	92	101	99	97
267	12	18	32	33	34
267	13	18	32	33	34
268	9	12	11	23	21
269	9	96	95	97	99
270	10	64	66	67	68
271	9	91	92	101	99
272	10	9	10	11	12
273	9	70	69	71	72
274	9	7	9	27	28
275	24	48	49	88	89
276	9	64	66	83	85
277	25	54	34	33	56
278	9	66	83	85	86
279	9	41	43	45	46
280	1	90	91	92	101
281	1	18	17	16	21
282	22	36	35	34	54
282	23	36	35	34	54

Impropers

3	2	43	41	44	45
4	3	18	19	32	17
17	2	5	7	4	6
25	2	7	9	5	8
33	2	4	29	3	5
35	2	61	85	60	62
41	2	11	12	23	10
42	2	5	6	7	4
45	2	95	97	93	96
47	2	79	68	77	80
49	2	92	93	101	91
51	1	91	90	92	103
54	2	58	59	60	1
55	2	61	60	62	85
57	2	36	37	45	35
60	2	66	64	67	83
66	2	99	97	100	101
67	2	45	46	36	43
71	2	39	37	40	41
72	3	18	17	19	32
75	2	101	92	99	102
77	2	66	83	64	67
82	2	93	92	94	95
83	2	95	96	97	93
85	2	79	77	80	68
91	2	85	86	61	83
92	2	77	79	73	78
98	2	69	71	68	70
104	2	99	101	97	100
109	2	97	98	99	95
120	2	14	12	15	16
123	2	9	10	27	7
129	2	45	43	46	36
132	2	21	22	23	16
137	2	71	72	73	69
141	2	69	70	71	68
143	2	29	4	27	30
146	2	69	68	70	71
152	2	99	100	101	97
155	2	43	44	45	41
161	2	64	62	65	66
164	2	9	7	10	27
166	2	11	10	12	23
167	2	97	95	98	99
168	2	36	35	37	45
169	2	1	2	3	58
177	1	3	31	1	4
179	2	16	14	17	21
182	2	62	61	63	64
185	2	12	14	11	13
186	2	37	36	38	39
190	2	27	9	28	29
194	2	58	60	1	59
198	2	43	45	41	44
201	2	83	85	66	84
204	2	11	23	10	12
207	1	35	47	34	36
211	2	66	67	83	64
217	2	29	30	4	27
220	2	85	61	83	86
222	2	9	27	7	10
223	1	3	1	4	31
224	2	92	91	93	101
225	2	16	17	21	14
227	1	60	87	58	61
237	2	7	8	9	5
242	2	73	77	71	74
246	1	17	20	16	18
247	2	27	29	9	28
249	2	85	83	86	61
251	2	12	13	14	11
262	2	92	101	91	93
263	2	77	78	79	73
264	2	29	27	30	4
271	2	79	80	68	77
274	2	27	28	29	9
281	2	16	21	14	17
283	1	17	18	20	16
284	2	62	64	61	63
288	2	41	43	39	42
290	2	93	95	92	94
295	2	71	69	72	73
297	2	1	3	58	2
298	2	23	11	21	24
303	2	58	1	59	60
308	2	101	99	102	92
309	2	64	65	66	62
310	2	21	23	16	22
315	2	1	58	2	3
323	2	37	39	36	38
329	2	23	24	11	21
330	2	14	15	16	12
332	2	12	11	13	14
347	2	73	74	77	71
352	2	64	66	62	65
354	2	41	39	42	43
356	1	91	103	90	92
358	2	14	16	12	15
363	1	17	16	18	20
368	2	36	45	35	37
369	2	5	4	6	7
371	1	35	34	36	47
377	2	68	67	69	79
379	2	37	38	39	36
383	2	61	62	85	60
389	2	7	5	8	9
390	1	35	36	47	34
393	2	39	41	37	40
395	1	60	58	61	87
398	2	93	94	95	92
413	2	77	73	78	79
417	1	3	4	31	1
419	2	62	63	64	61
428	2	101	102	92	99
430	2	4	3	5	29
435	2	21	16	22	23
441	3	18	32	17	19
442	2	45	36	43	46
443	2	4	5	29	3
445	2	68	79	67	69
446	1	91	92	103	90
456	2	23	21	24	11
463	2	97	99	95	98
468	2	68	69	79	67
470	2	73	71	74	77
471	2	41	42	43	39
474	2	83	66	84	85
476	2	83	84	85	66
477	1	60	61	87	58
483	2	95	93	96	97
492	2	71	73	69	72
496	2	39	40	41	37
