Title

103 atoms
102 bonds
193 angles
348 dihedrals
15 impropers

9 atom types
12 bond types
9 angle types
39 dihedral types
3 improper types
-4.103000164 95.89699984 xlo xhi
-1.546000004 98.454 ylo yhi
-3.47300005 96.52699995 zlo zhi
0.0 0.0 0.0 xy xz yz

Masses

1	14.00672
2	12.01078
3	1.007947
4	1.007947
5	1.007947
6	12.01078
7	15.99943
8	15.99943
9	1.007947


Pair Coeffs

1	0.16769152	3.206876
2	0.10884061	3.3795318
3	0.014090815	1.1034277
4	0.016409246	2.5832257
5	0.015779483	2.6445434
6	0.086879315	3.4806469
7	0.2102061	3.0398122
8	0.20947353	2.99716
9	1.2326e-05	0.53453923

Bond Coeffs

1 harmonic	366.34047229585	1.464762957261
2 harmonic	505.144496193	1.019481865027
3 harmonic	422.7150220147	1.421786517481
4 harmonic	264.62148576755	1.52190126495
5 harmonic	370.04670688625	1.093899492634
6 harmonic	352.0565580496	1.450098586273
7 harmonic	492.76746816345	1.381897776683
8 harmonic	582.698766451	1.225198386222
9 harmonic	329.44145381095	1.523435958334
10 harmonic	279.1350963404	1.454628925034
11 harmonic	385.7604595587	1.369745182308
12 harmonic	543.5267831885	0.9716763312559


Angle Coeffs

1 harmonic	53.20531626545	116.5475862634
2 harmonic	49.015990027215	114.8414599994
3 harmonic	94.53012429075	110.92021963
4 harmonic	63.44422595415	115.5071327674
5 harmonic	55.42182150775	117.3465570514
6 harmonic	57.8982893754	126.8062420451
7 harmonic	48.776492647595	115.6030999533
8 harmonic	65.09061609600001	110.3538806181
9 harmonic	201.41175231035	127.4691416191


Dihedral Coeffs

1 fourier 1	0.1155372516788	3	0
2 fourier 1	0.2036670163956	3	0
3 fourier 1	0.6761465733405	3	0
4 fourier 1	1.653011589151	2	0
5 fourier 1	1.713184811193	1	0
6 fourier 1	0.774151252041	3	0
7 fourier 1	1.087509576657	2	0
8 fourier 1	1.518874939494	1	0
9 fourier 1	0.09223874044423	3	0
10 fourier 1	0.3159935921949	2	180
11 fourier 1	0.3247796806857	1	180
12 fourier 1	0.1040663847541	3	0
13 fourier 1	0.182238503271	2	0
14 fourier 1	0.02972342374561	3	0
15 fourier 1	-0.1488678166443	4	180
16 fourier 1	-0.1230328948768	3	180
17 fourier 1	0.2939295466901	2	0
18 fourier 1	-0.3024127022865	1	0
19 fourier 1	3.101948770557	2	180
20 fourier 1	-0.4252153282372	1	0
21 fourier 1	1.809047390003	2	180
22 fourier 1	-0.04816277792592	1	0
23 fourier 1	-0.04561822763521	4	0
24 fourier 1	0.1536091026885	2	0
25 fourier 1	0.02664938770063	3	0
26 fourier 1	2.348375642009	2	180
27 fourier 1	1.256156174911	1	0
28 fourier 1	0.1911926717192	3	0
29 fourier 1	0.3917343745784	3	0
30 fourier 1	0.9467782973395	2	0
31 fourier 1	0.2726597146827	1	0
32 fourier 1	-0.3703352413219	2	0
33 fourier 1	0.4541676554336	1	0
34 fourier 1	0.1489710476446	2	0
35 fourier 1	0.02960027280666	3	180
36 fourier 1	0.9974165607242	2	180
37 fourier 1	2.687457892086	2	180
38 fourier 1	2.772607909663	2	180
39 fourier 1	0.09692684957115	1	0


Improper Coeffs

1 0.3333333333333333	-1	2
2 0.3666666666666667	-1	2
3 3.5	-1	2


Atoms

1	1	1	-0.63803798	-3.73	0.76800001	-0.67199999
2	1	2	0.031042	-3.329	-0.105	0.43099999
3	1	2	-0.155772	-1.973	-0.787	0.18000001
4	1	2	-0.14437	-0.80000001	0.204	0.20299999
5	1	2	-0.14439701	0.542	-0.52999997	0.092
6	1	2	-0.145785	1.7130001	0.45899999	0.102
7	1	2	0.015369	3.0539999	-0.27200001	-0.0060000001
8	1	1	-0.49047199	4.152	0.68900001	-0.017000001
9	1	3	0.317572	4.223	1.115	0.93599999
10	1	4	0.048393998	3.0769999	-0.861	-0.949
11	1	4	0.048393998	3.1760001	-0.97299999	0.85100001
12	1	5	0.082923003	1.692	1.0470001	1.0470001
13	1	5	0.082923003	1.613	1.163	-0.75300002
14	1	5	0.081868	0.56300002	-1.1160001	-0.85299999
15	1	5	0.081868	0.648	-1.234	0.94700003
16	1	5	0.083357997	-0.89300001	0.912	-0.64899999
17	1	5	0.083357997	-0.824	0.78399998	1.152
18	1	5	0.088496998	-1.819	-1.546	0.97799999
19	1	5	0.088496998	-1.995	-1.323	-0.79400003
20	1	4	0.089180999	-3.2950001	0.479	1.376
21	1	4	0.089180999	-4.1030002	-0.89200002	0.55500001
22	1	3	0.36032099	-3.1029999	1.604	-0.69499999
23	1	6	0.72573298	5.0560002	0.147	-0.17399999
24	1	7	-0.742576	5.086	-0.72500002	-1.027
25	1	2	-0.18158799	6.2820001	0.44299999	0.63800001
26	1	2	-0.121073	6.0240002	1.579	1.638
27	1	2	-0.136765	7.289	1.989	2.4100001
28	1	2	-0.141321	7.6659999	0.977	3.5050001
29	1	2	-0.141321	8.9870005	1.326	4.2150002
30	1	2	-0.13864	8.9890003	2.668	4.9710002
31	1	2	-0.096988998	7.9419999	2.7260001	6.0929999
32	1	2	-0.257433	8.1110001	3.9960001	6.9349999
33	1	6	0.51743603	7.0809999	4.0679998	8.0229998
34	1	7	-0.68350101	7.0689998	5.0180001	8.7880001
35	1	5	0.114158	9.1210003	4.006	7.3979998
36	1	5	0.114158	8.0080004	4.8909998	6.2839999
37	1	5	0.077532001	6.9229999	2.7260001	5.651
38	1	5	0.077532001	8.0500002	1.834	6.7490001
39	1	5	0.079244003	10	2.799	5.4159999
40	1	5	0.079244003	8.8369999	3.51	4.263
41	1	5	0.081119001	9.2270002	0.51200002	4.9330001
42	1	5	0.081119001	9.8050003	1.3430001	3.4619999
43	1	5	0.081119001	6.842	0.89099997	4.2449999
44	1	5	0.081119001	7.796	-0.026000001	3.05
45	1	5	0.079244003	8.1370001	2.1240001	1.7029999
46	1	5	0.079244003	7.0830002	2.9719999	2.8840001
47	1	5	0.085312001	5.6609998	2.4690001	1.077
48	1	5	0.085312001	5.224	1.283	2.3529999
49	1	5	0.11715	7.105	0.73000002	-0.050999999
50	1	5	0.11715	6.5749998	-0.48300001	1.176
51	1	1	-0.63803798	-3.625	0.25600001	-1.5779999
52	1	2	0.031042	-2.984	1.1289999	-2.5599999
53	1	2	-0.155772	-1.72	1.811	-2.007
54	1	2	-0.144447	-0.574	0.81999999	-1.763
55	1	2	-0.143084	0.708	1.554	-1.349
56	1	2	-0.15725499	1.851	0.565	-1.0930001
57	1	2	0.028097	3.132	1.296	-0.68199998
58	1	1	-0.97526199	4.198	0.33500001	-0.421
59	1	3	0.38025099	5.027	0.86699998	-0.068999998
60	1	3	0.38025099	4.4850001	-0.090999998	-1.3329999
61	1	4	0.077264003	2.9400001	1.885	0.242
62	1	4	0.077264003	3.4460001	1.997	-1.489
63	1	5	0.089368001	2.046	-0.023	-2.017
64	1	5	0.089368001	1.559	-0.139	-0.28200001
65	1	5	0.083357997	0.51300001	2.1400001	-0.42399999
66	1	5	0.083357997	1.006	2.2579999	-2.1570001
67	1	5	0.083357997	-0.85799998	0.112	-0.954
68	1	5	0.083357997	-0.38100001	0.23999999	-2.6919999
69	1	5	0.088496998	-1.3890001	2.5699999	-2.75
70	1	5	0.088496998	-1.964	2.3469999	-1.064
71	1	4	0.089180999	-2.7349999	0.54500002	-3.473
72	1	4	0.089180999	-3.71	1.916	-2.858
73	1	3	0.36032099	-3.0209999	-0.57999998	-1.4119999
74	1	6	0.51743603	6.3400002	3.2839999	8.1420002
75	1	7	-0.68350101	5.2290001	3.4260001	7.6589999
76	1	2	-0.257433	6.6929998	2.027	8.8830004
77	1	2	-0.096988998	5.8590002	1.857	10.16
78	1	2	-0.13864	6.1939998	2.9200001	11.217
79	1	2	-0.141321	5.381	2.6989999	12.498
80	1	2	-0.141321	5.7059999	3.7709999	13.548
81	1	2	-0.13598099	5.0159998	3.51	14.897
82	1	2	-0.112771	3.5	3.767	14.844
83	1	2	-0.21844199	2.8340001	3.5799999	16.214001
84	1	6	0.82438201	3.221	4.664	17.173
85	1	7	-0.553747	4.0549998	4.4310002	18.087999
86	1	8	-0.66489798	2.677	5.9369998	17.035
87	1	9	0.39492899	2.937	6.684	17.667999
88	1	5	0.118507	1.7309999	3.6059999	16.084
89	1	5	0.118507	3.0969999	2.5840001	16.632999
90	1	5	0.086337	3.299	4.7940001	14.468
91	1	5	0.086337	3.029	3.049	14.141
92	1	5	0.079244003	5.2129998	2.4660001	15.225
93	1	5	0.079244003	5.474	4.1900001	15.647
94	1	5	0.081119001	5.4200001	4.7750001	13.167
95	1	5	0.081119001	6.8049998	3.7780001	13.723
96	1	5	0.081119001	4.2989998	2.737	12.246
97	1	5	0.081119001	5.6139998	1.692	12.911
98	1	5	0.079244003	5.967	3.931	10.813
99	1	5	0.079244003	7.2789998	2.8710001	11.456
100	1	5	0.077532001	4.776	1.899	9.9090004
101	1	5	0.077532001	6.0700002	0.85000002	10.581
102	1	5	0.114158	7.7750001	2.0409999	9.1400003
103	1	5	0.114158	6.5170002	1.158	8.2139997

Bonds

1	1	1	2
2	2	1	22
3	3	1	51
4	4	2	3
5	5	2	20
6	5	2	21
7	4	3	4
8	5	3	18
9	5	3	19
10	4	4	5
11	5	4	16
12	5	4	17
13	4	5	6
14	5	5	14
15	5	5	15
16	4	6	7
17	5	6	12
18	5	6	13
19	6	7	8
20	5	7	10
21	5	7	11
22	2	8	9
23	7	8	23
24	8	23	24
25	9	23	25
26	4	25	26
27	5	25	49
28	5	25	50
29	4	26	27
30	5	26	47
31	5	26	48
32	4	27	28
33	5	27	45
34	5	27	46
35	4	28	29
36	5	28	43
37	5	28	44
38	4	29	30
39	5	29	41
40	5	29	42
41	4	30	31
42	5	30	39
43	5	30	40
44	4	31	32
45	5	31	37
46	5	31	38
47	9	32	33
48	5	32	35
49	5	32	36
50	8	33	34
51	10	33	74
52	1	51	52
53	2	51	73
54	4	52	53
55	5	52	71
56	5	52	72
57	4	53	54
58	5	53	69
59	5	53	70
60	4	54	55
61	5	54	67
62	5	54	68
63	4	55	56
64	5	55	65
65	5	55	66
66	4	56	57
67	5	56	63
68	5	56	64
69	1	57	58
70	5	57	61
71	5	57	62
72	2	58	59
73	2	58	60
74	8	74	75
75	9	74	76
76	4	76	77
77	5	76	102
78	5	76	103
79	4	77	78
80	5	77	100
81	5	77	101
82	4	78	79
83	5	78	98
84	5	78	99
85	4	79	80
86	5	79	96
87	5	79	97
88	4	80	81
89	5	80	94
90	5	80	95
91	4	81	82
92	5	81	92
93	5	81	93
94	4	82	83
95	5	82	90
96	5	82	91
97	9	83	84
98	5	83	88
99	5	83	89
100	8	84	85
101	11	84	86
102	12	86	87

Angles

1	6	24	23	25
2	1	78	77	100
3	7	69	53	70
4	1	6	5	14
5	1	56	57	61
6	7	18	3	19
7	1	30	29	42
8	6	83	84	85
9	3	2	1	22
10	6	8	23	24
11	1	54	55	66
12	1	78	79	96
13	1	28	29	41
14	1	4	5	14
15	1	31	32	33
16	1	78	79	80
17	1	57	56	63
18	7	98	78	99
19	1	3	4	16
20	7	39	30	40
21	1	4	3	19
22	1	79	78	99
23	3	1	51	73
24	1	32	31	37
25	1	77	78	98
26	1	31	30	39
27	6	32	33	74
28	1	6	7	11
29	1	52	53	70
30	1	53	52	71
31	7	102	76	103
32	7	14	5	15
33	6	34	33	74
34	1	54	55	56
35	1	26	27	45
36	1	6	7	10
37	1	4	3	18
38	2	1	51	52
39	1	31	32	36
40	1	7	6	12
41	1	32	31	38
42	1	58	57	61
43	1	82	81	92
44	3	52	51	73
45	1	5	4	16
46	1	55	54	68
47	9	85	84	86
48	1	53	54	55
49	1	56	57	58
50	1	1	2	3
51	1	25	26	48
52	6	32	33	34
53	1	53	54	67
54	1	3	2	20
55	1	3	4	5
56	1	55	56	63
57	1	77	78	99
58	1	31	30	40
59	7	41	29	42
60	1	27	28	29
61	8	84	86	87
62	1	23	25	49
63	1	82	83	89
64	1	55	56	57
65	7	65	55	66
66	1	28	27	45
67	1	56	55	65
68	7	67	54	68
69	1	29	28	43
70	1	54	53	70
71	1	30	31	37
72	1	74	76	103
73	1	83	82	90
74	7	12	6	13
75	1	53	54	68
76	6	8	23	25
77	1	33	32	35
78	1	28	29	30
79	3	22	1	51
80	1	82	81	93
81	1	79	80	81
82	4	7	8	9
83	1	74	76	77
84	1	27	26	48
85	1	5	6	12
86	1	29	28	44
87	1	30	31	32
88	1	30	29	41
89	1	55	56	64
90	1	1	2	20
91	6	75	74	76
92	7	63	56	64
93	1	80	81	92
94	1	82	83	88
95	7	20	2	21
96	1	8	7	11
97	6	33	74	76
98	1	76	77	100
99	1	29	30	39
100	1	76	77	78
101	1	81	80	95
102	7	45	27	46
103	7	92	81	93
104	1	27	28	43
105	1	77	78	79
106	1	25	26	47
107	1	52	53	54
108	4	9	8	23
109	1	29	30	31
110	1	23	25	26
111	1	8	7	10
112	1	3	4	17
113	1	56	57	62
114	1	80	81	82
115	1	27	28	44
116	7	49	25	50
117	1	81	82	83
118	1	79	80	95
119	1	52	53	69
120	1	57	56	64
121	7	16	4	17
122	1	51	52	53
123	7	88	83	89
124	1	7	6	13
125	6	33	74	75
126	1	83	82	91
127	1	26	27	28
128	7	90	82	91
129	5	7	8	23
130	1	80	81	93
131	7	37	31	38
132	1	76	77	101
133	1	26	27	46
134	1	26	25	49
135	1	29	30	40
136	7	47	26	48
137	1	3	2	21
138	1	31	32	35
139	1	27	26	47
140	1	51	52	72
141	1	80	79	97
142	3	57	58	59
143	1	84	83	89
144	1	5	4	17
145	1	23	25	50
146	1	6	5	15
147	1	80	79	96
148	1	81	82	90
149	7	96	79	97
150	1	2	3	4
151	1	77	76	103
152	1	78	79	97
153	3	57	58	60
154	1	30	31	38
155	1	54	55	65
156	1	4	5	15
157	1	26	25	50
158	1	74	76	102
159	1	2	3	19
160	1	58	57	62
161	1	81	80	94
162	7	61	57	62
163	1	28	27	46
164	1	5	6	13
165	7	71	52	72
166	1	54	53	69
167	1	1	2	21
168	7	94	80	95
169	1	84	83	88
170	1	77	76	102
171	1	2	3	18
172	1	4	5	6
173	1	28	29	42
174	3	59	58	60
175	1	79	80	94
176	7	35	32	36
177	1	78	77	101
178	1	55	54	67
179	1	53	52	72
180	1	56	55	66
181	7	43	28	44
182	1	82	83	84
183	1	51	52	71
184	7	100	77	101
185	2	2	1	51
186	1	25	26	27
187	1	81	82	91
188	1	5	6	7
189	1	79	78	98
190	1	33	32	36
191	7	10	7	11
192	6	83	84	86
193	1	6	7	8

Dihedrals

1	21	9	8	23	25
1	22	9	8	23	25
2	12	54	55	56	63
3	9	76	77	78	79
3	10	76	77	78	79
3	11	76	77	78	79
4	29	22	1	51	73
4	30	22	1	51	73
4	31	22	1	51	73
5	12	29	30	31	37
6	9	79	80	81	82
6	10	79	80	81	82
6	11	79	80	81	82
7	12	52	53	54	67
8	28	88	83	82	91
9	28	16	4	3	19
10	28	67	54	53	69
11	33	34	33	32	35
11	34	34	33	32	35
11	35	34	33	32	35
12	28	97	79	78	98
13	28	61	57	56	64
14	9	3	4	5	6
14	10	3	4	5	6
14	11	3	4	5	6
15	33	85	84	83	89
15	34	85	84	83	89
15	35	85	84	83	89
16	28	48	26	25	50
17	1	1	2	3	18
18	1	30	31	32	33
19	36	32	33	74	75
20	12	55	54	53	70
21	28	64	56	55	65
22	25	86	84	83	89
23	2	20	2	1	22
24	12	4	5	6	12
25	28	95	80	79	96
26	28	35	32	31	38
27	2	59	58	57	62
28	1	8	7	6	12
29	12	79	80	81	93
30	33	24	23	25	49
30	34	24	23	25	49
30	35	24	23	25	49
31	12	81	80	79	97
32	2	3	2	1	51
33	28	89	83	82	90
34	28	12	6	5	14
35	12	29	30	31	38
36	28	16	4	3	18
37	28	46	27	26	48
38	28	10	7	6	13
39	9	27	28	29	30
39	10	27	28	29	30
39	11	27	28	29	30
40	12	27	26	25	50
41	19	7	8	23	24
41	20	7	8	23	24
42	37	83	84	86	87
43	28	15	5	4	16
44	12	80	81	82	90
45	28	99	78	77	100
46	1	5	6	7	8
47	12	55	56	57	61
48	28	63	56	55	66
49	28	100	77	76	103
50	2	21	2	1	22
51	1	51	52	53	70
52	28	101	77	76	103
53	28	92	81	80	94
54	2	3	2	1	22
55	28	38	31	30	39
56	25	82	83	84	86
57	1	1	2	3	4
58	33	24	23	25	50
58	34	24	23	25	50
58	35	24	23	25	50
59	25	86	84	83	88
60	28	13	6	5	14
61	28	14	5	4	17
62	28	97	79	78	99
63	3	2	1	51	52
63	4	2	1	51	52
63	5	2	1	51	52
64	12	3	4	5	14
65	12	30	31	32	36
66	1	1	2	3	19
67	25	33	74	76	102
68	28	90	82	81	92
69	33	75	74	76	103
69	34	75	74	76	103
69	35	75	74	76	103
70	28	69	53	52	72
71	2	72	52	51	73
72	12	32	31	30	40
73	1	33	32	31	38
74	2	20	2	1	51
75	36	34	33	74	75
76	12	80	79	78	98
77	32	82	83	84	85
78	9	26	27	28	29
78	10	26	27	28	29
78	11	26	27	28	29
79	1	23	25	26	48
80	28	19	3	2	20
81	28	18	3	2	20
82	12	5	4	3	19
83	9	52	53	54	55
83	10	52	53	54	55
83	11	52	53	54	55
84	12	56	55	54	68
85	28	62	57	56	64
86	28	70	53	52	71
87	28	68	54	53	69
88	32	75	74	76	77
89	12	78	77	76	103
90	12	4	3	2	21
91	32	24	23	25	26
92	28	96	79	78	99
93	28	99	78	77	101
94	12	6	5	4	16
95	28	39	30	29	42
96	28	36	32	31	37
97	28	42	29	28	44
98	28	66	55	54	68
99	28	41	29	28	43
100	28	44	28	27	45
101	25	36	32	33	74
102	28	89	83	82	91
103	2	21	2	1	51
104	28	64	56	55	66
105	28	46	27	26	47
106	12	78	79	80	95
107	33	75	74	76	102
107	34	75	74	76	102
107	35	75	74	76	102
108	12	5	4	3	18
109	28	43	28	27	46
110	6	2	1	51	73
110	7	2	1	51	73
110	8	2	1	51	73
111	28	19	3	2	21
112	1	58	57	56	64
113	12	76	77	78	98
114	12	77	78	79	97
115	12	52	53	54	68
116	28	65	55	54	67
117	12	80	81	82	91
118	1	81	82	83	84
119	28	41	29	28	44
120	12	81	80	79	96
121	12	28	27	26	48
122	12	83	82	81	92
123	1	55	56	57	58
124	12	80	79	78	99
125	28	36	32	31	38
126	12	26	27	28	43
127	12	57	56	55	65
128	28	45	27	26	48
129	12	4	5	6	13
130	12	25	26	27	45
131	1	8	7	6	13
132	12	53	54	55	65
133	38	85	84	86	87
133	39	85	84	86	87
134	9	78	79	80	81
134	10	78	79	80	81
134	11	78	79	80	81
135	2	1	51	52	53
136	25	8	23	25	49
137	12	6	5	4	17
138	28	37	31	30	39
139	28	39	30	29	41
140	12	54	55	56	64
141	28	69	53	52	71
142	12	54	53	52	72
143	12	26	27	28	44
144	21	7	8	23	25
144	22	7	8	23	25
145	1	23	25	26	47
146	28	44	28	27	46
147	28	17	4	3	18
148	12	55	54	53	69
149	2	60	58	57	62
150	1	84	83	82	90
151	1	74	76	77	101
152	28	42	29	28	43
153	12	7	6	5	15
154	12	28	29	30	39
155	28	47	26	25	49
156	1	51	52	53	54
157	2	1	51	52	72
158	2	59	58	57	61
159	12	76	77	78	99
160	28	100	77	76	102
161	28	61	57	56	63
162	12	7	6	5	14
163	28	101	77	76	102
164	9	2	3	4	5
164	10	2	3	4	5
164	11	2	3	4	5
165	28	15	5	4	17
166	12	83	82	81	93
167	25	8	23	25	50
168	9	28	29	30	31
168	10	28	29	30	31
168	11	28	29	30	31
169	2	53	52	51	73
170	12	5	6	7	11
171	28	93	81	80	95
172	9	25	26	27	28
172	10	25	26	27	28
172	11	25	26	27	28
173	28	67	54	53	70
174	9	4	5	6	7
174	10	4	5	6	7
174	11	4	5	6	7
175	33	34	33	32	36
175	34	34	33	32	36
175	35	34	33	32	36
176	12	27	28	29	42
177	25	31	32	33	74
178	1	51	52	53	69
179	12	25	26	27	46
180	28	93	81	80	94
181	28	38	31	30	40
182	28	11	7	6	12
183	1	74	76	77	100
184	28	40	30	29	42
185	26	9	8	23	24
185	27	9	8	23	24
186	28	94	80	79	97
187	12	28	27	26	47
188	1	74	76	77	78
189	12	2	3	4	16
190	28	18	3	2	21
191	9	54	55	56	57
191	10	54	55	56	57
191	11	54	55	56	57
192	28	37	31	30	40
193	12	5	6	7	10
194	1	23	25	26	27
195	12	78	79	80	94
196	28	90	82	81	93
197	12	30	31	32	35
198	12	29	28	27	45
199	12	77	78	79	96
200	12	79	78	77	100
201	13	6	7	8	9
201	14	6	7	8	9
202	28	17	4	3	19
203	28	45	27	26	47
204	23	8	23	25	26
204	24	8	23	25	26
205	2	56	57	58	60
206	12	55	56	57	62
207	12	78	77	76	102
208	28	48	26	25	49
209	28	35	32	31	37
210	12	57	56	55	66
211	28	11	7	6	13
212	9	77	78	79	80
212	10	77	78	79	80
212	11	77	78	79	80
213	1	84	83	82	91
214	12	54	53	52	71
215	12	30	29	28	43
216	28	91	82	81	92
217	12	53	54	55	66
218	32	31	32	33	34
219	13	9	8	7	11
219	14	9	8	7	11
220	28	65	55	54	68
221	28	10	7	6	12
222	12	31	30	29	42
223	12	27	26	25	49
224	28	95	80	79	97
225	28	14	5	4	16
226	12	27	28	29	41
227	25	35	32	33	74
228	28	70	53	52	72
229	28	98	78	77	101
230	28	88	83	82	90
231	2	1	51	52	71
232	28	62	57	56	63
233	28	40	30	29	41
234	13	11	7	8	23
234	14	11	7	8	23
235	12	30	29	28	44
236	9	29	30	31	32
236	10	29	30	31	32
236	11	29	30	31	32
237	12	2	3	4	17
238	28	12	6	5	15
239	13	9	8	7	10
239	14	9	8	7	10
240	12	32	31	30	39
241	12	81	82	83	89
242	12	79	78	77	101
243	12	29	28	27	46
244	25	33	74	76	103
245	6	22	1	51	52
245	7	22	1	51	52
245	8	22	1	51	52
246	28	68	54	53	70
247	36	34	33	74	76
248	2	71	52	51	73
249	28	96	79	78	98
250	12	82	81	80	95
251	15	6	7	8	23
251	16	6	7	8	23
251	17	6	7	8	23
251	18	6	7	8	23
252	2	56	57	58	59
253	28	63	56	55	65
254	1	33	32	31	37
255	28	98	78	77	100
256	28	92	81	80	95
257	1	58	57	56	63
258	25	33	74	76	77
259	28	91	82	81	93
260	12	82	81	80	94
261	28	13	6	5	15
262	28	47	26	25	50
263	12	56	55	54	67
264	33	85	84	83	88
264	34	85	84	83	88
264	35	85	84	83	88
265	9	53	54	55	56
265	10	53	54	55	56
265	11	53	54	55	56
266	12	3	4	5	15
267	28	94	80	79	96
268	12	79	80	81	92
269	12	31	30	29	41
270	12	4	3	2	20
271	36	32	33	74	76
272	13	10	7	8	23
272	14	10	7	8	23
273	28	43	28	27	45
274	12	81	82	83	88
275	28	66	55	54	67
276	12	28	29	30	40
277	2	60	58	57	61
278	9	80	81	82	83
278	10	80	81	82	83
278	11	80	81	82	83

Impropers

22	2	74	33	75	76
36	2	23	8	24	25
76	2	33	74	32	34
109	2	33	32	34	74
127	3	84	86	83	85
150	2	74	76	33	75
313	3	84	85	86	83
364	1	8	9	23	7
445	3	84	83	85	86
449	1	8	7	9	23
504	2	33	34	74	32
519	2	23	25	8	24
546	2	74	75	76	33
602	2	23	24	25	8
676	1	8	23	7	9
