Title

110 atoms
109 bonds
198 angles
354 dihedrals
18 impropers

11 atom types
14 bond types
9 angle types
39 dihedral types
3 improper types
-12.50599957 87.49400043 xlo xhi
-10.41399956 89.58600044 ylo yhi
-7.673999786 92.32600021 zlo zhi
0.0 0.0 0.0 xy xz yz

Masses

1	12.01078
2	15.99943
3	14.00672
4	12.01078
5	1.007947
6	1.007947
7	1.007947
8	15.99943
9	12.01078
10	15.99943
11	1.007947


Pair Coeffs

1	0.086879315	3.4806469
2	0.2102061	3.0398122
3	0.16769152	3.206876
4	0.10884061	3.3795318
5	0.014090815	1.1034277
6	0.016409246	2.5832257
7	0.015779483	2.6445434
8	0.16846514	3.0251065
9	0.21	3.3996695
10	0.20947353	2.99716
11	1.2326e-05	0.53453923

Bond Coeffs

1 harmonic	582.698766451	1.225198386222
2 harmonic	492.76746816345	1.381897776683
3 harmonic	279.1350963404	1.454628925034
4 harmonic	352.0565580496	1.450098586273
5 harmonic	505.144496193	1.019481865027
6 harmonic	264.62148576755	1.52190126495
7 harmonic	370.04670688625	1.093899492634
8 harmonic	301.15400723785	1.345741232799
9 harmonic	366.7408841747	1.425895053732
10 harmonic	300.03137914615	1.451203938761
11 harmonic	366.34047229585	1.464762957261
12 harmonic	602.81384337	1.196112346392
13 harmonic	329.96998057905	1.427343958716
14 harmonic	543.5267831885	0.9716763312559


Angle Coeffs

1 harmonic	55.42182150775	117.3465570514
2 harmonic	63.44422595415	115.5071327674
3 harmonic	57.8982893754	126.8062420451
4 harmonic	53.20531626545	116.5475862634
5 harmonic	65.09061609600001	110.3538806181
6 harmonic	201.41175231035	127.4691416191
7 harmonic	48.776492647595	115.6030999533
8 harmonic	55.07882548015	112.8714009681
9 harmonic	33.56981613361	180


Dihedral Coeffs

1 fourier 1	-0.1488678166443	4	180
2 fourier 1	-0.1230328948768	3	180
3 fourier 1	0.2939295466901	2	0
4 fourier 1	-0.3024127022865	1	0
5 fourier 1	0.182238503271	2	0
6 fourier 1	0.02972342374561	3	0
7 fourier 1	1.809047390003	2	180
8 fourier 1	-0.04816277792592	1	0
9 fourier 1	3.101948770557	2	180
10 fourier 1	-0.4252153282372	1	0
11 fourier 1	2.348375642009	2	180
12 fourier 1	1.256156174911	1	0
13 fourier 1	0.9974165607242	2	180
14 fourier 1	0.1155372516788	3	0
15 fourier 1	0.09223874044423	3	0
16 fourier 1	0.3159935921949	2	180
17 fourier 1	0.3247796806857	1	180
18 fourier 1	0.1040663847541	3	0
19 fourier 1	2.779853741805	2	180
20 fourier 1	0.1918272375143	3	0
21 fourier 1	0.9202179876409	1	180
22 fourier 1	0.0473758381877	3	0
23 fourier 1	0.4860993122944	2	180
24 fourier 1	0.8916986138746	1	0
25 fourier 1	1.163809172478	2	180
26 fourier 1	0.1679186987369	1	180
27 fourier 1	0.1911926717192	3	0
28 fourier 1	-0.0309670556842	3	0
29 fourier 1	0.4598191477945	2	0
30 fourier 1	0.1115525666802	3	0
31 fourier 1	0.3432490222662	1	0
32 fourier 1	0.4552156463534	3	0
33 fourier 1	-0.03687743385131	2	180
34 fourier 1	0.457973137376	1	0
35 fourier 1	-1.382973039546	1	0
36 fourier 1	0	1	0
37 fourier 1	0.3445382149273	3	0
38 fourier 1	0.1364556373303	1	0
39 fourier 1	0.3026390167484	3	0


Improper Coeffs

1 0.3333333333333333	-1	2
2 0.3666666666666667	-1	2
3 3.5	-1	2


Atoms

1	1	1	0.545834	-4.6939998	1.331	-0.38600001
2	1	2	-0.66794503	-5.1230001	1.428	0.79500002
3	1	3	-0.51875401	-3.4430001	0.69599998	-0.66100001
4	1	4	0.032974001	-2.6159999	0.13600001	0.40700001
5	1	4	-0.144072	-1.3329999	-0.479	-0.161
6	1	4	-0.14071999	-0.45199999	-1.053	0.95899999
7	1	4	-0.14071999	0.75700003	-1.8430001	0.42699999
8	1	4	-0.14278001	1.749	-1.023	-0.41800001
9	1	4	0.027225001	2.3959999	0.12800001	0.36399999
10	1	3	-0.46197701	3.4519999	0.76200002	-0.42399999
11	1	1	0.788279	4.2150002	1.858	0.088
12	1	2	-0.59416997	3.9979999	2.3099999	1.244
13	1	5	0.329523	3.668	0.42500001	-1.39
14	1	6	0.062789999	1.6289999	0.89200002	0.61000001
15	1	6	0.062789999	2.832	-0.264	1.309
16	1	7	0.092495002	1.249	-0.62900001	-1.3279999
17	1	7	0.092495002	2.55	-1.7130001	-0.75999999
18	1	7	0.091165997	1.301	-2.2809999	1.293
19	1	7	0.091165997	0.38800001	-2.6930001	-0.186
20	1	7	0.091165997	-0.114	-0.237	1.633
21	1	7	0.091165997	-1.063	-1.749	1.574
22	1	7	0.092495002	-0.77499998	0.31	-0.708
23	1	7	0.092495002	-1.602	-1.289	-0.875
24	1	6	0.059160002	-3.1960001	-0.64499998	0.94499999
25	1	6	0.059160002	-2.352	0.94400001	1.125
26	1	5	0.322943	-3.1300001	0.63999999	-1.6569999
27	1	8	-0.49354601	4.9559999	2.2869999	-0.49700001
28	1	4	0.107076	5.3150001	1.33	-1.456
29	1	4	0.080248997	6.2069998	0.26100001	-0.82999998
30	1	8	-0.48399299	6.5819998	-0.667	-1.826
31	1	4	0.060853001	7.4089999	-1.66	-1.257
32	1	4	0.061110999	7.8070002	-2.6600001	-2.339
33	1	8	-0.48409	8.5710001	-3.71	-1.777
34	1	4	0.061110999	9.9519997	-3.4679999	-1.952
35	1	4	0.061110999	10.751	-4.473	-1.125
36	1	8	-0.48618701	10.367	-4.4109998	0.237
37	1	4	0.081179999	11.237	-3.566	0.95999998
38	1	4	0.03087	10.695	-3.3870001	2.375
39	1	8	-0.13846099	11.524	-2.5280001	3.1099999
40	1	6	0.094171003	10.611	-4.375	2.882
41	1	6	0.094171003	9.6789999	-2.9400001	2.323
42	1	6	0.090277001	12.251	-4.0240002	1.023
43	1	6	0.090277001	11.313	-2.562	0.48500001
44	1	6	0.090098001	11.844	-4.3189998	-1.288
45	1	6	0.090098001	10.522	-5.494	-1.499
46	1	6	0.090098001	10.226	-3.5969999	-3.023
47	1	6	0.090098001	10.233	-2.4400001	-1.631
48	1	6	0.090098001	6.8800001	-3.1029999	-2.7620001
49	1	6	0.090098001	8.3179998	-2.135	-3.181
50	1	6	0.090098001	6.868	-2.21	-0.45300001
51	1	6	0.090098001	8.3330002	-1.204	-0.83399999
52	1	6	0.088703997	5.6360002	-0.243	-0.017000001
53	1	6	0.088703997	7.105	0.76099998	-0.39899999
54	1	6	0.096654996	4.4060001	0.86000001	-1.896
55	1	6	0.096654996	5.8699999	1.837	-2.273
56	1	1	0.545834	-5.2810001	1.734	-1.2
57	1	2	-0.66794503	-5.3039999	1.13	-2.3050001
58	1	3	-0.51875401	-6.013	2.95	-1.011
59	1	4	0.032974001	-6.8260002	3.556	-2.0639999
60	1	4	-0.144072	-8.1389999	2.786	-2.2379999
61	1	4	-0.14053801	-9.0120001	3.427	-3.3280001
62	1	4	-0.136343	-10.394	2.7650001	-3.4449999
63	1	4	-0.120525	-10.327	1.36	-4.0650001
64	1	4	0.18628301	-11.726	0.75800002	-4.27
65	1	3	-0.62014902	-12.506	1.5190001	-5.2420001
66	1	9	0.59469002	-12.193	1.558	-6.4749999
67	1	2	-0.441553	-11.887	1.597	-7.6739998
68	1	6	0.036729001	-11.632	-0.29699999	-4.6100001
69	1	6	0.036729001	-12.269	0.75099999	-3.3010001
70	1	7	0.086103	-9.7629995	0.68199998	-3.3900001
71	1	7	0.086103	-9.7910004	1.397	-5.0380001
72	1	7	0.089876004	-10.874	2.7149999	-2.4430001
73	1	7	0.089876004	-11.027	3.415	-4.0879998
74	1	7	0.091165997	-9.1660004	4.4990001	-3.079
75	1	7	0.091165997	-8.4879999	3.381	-4.3080001
76	1	7	0.092495002	-7.9089999	1.7359999	-2.513
77	1	7	0.092495002	-8.6890001	2.7869999	-1.271
78	1	6	0.059160002	-6.2540002	3.572	-3.0179999
79	1	6	0.059160002	-7.053	4.6069999	-1.783
80	1	5	0.322943	-5.9109998	3.4530001	-0.101
81	1	8	-0.13846099	12.322	-3.0580001	3.3710001
82	1	4	0.03087	13.251	-2.924	2.3299999
83	1	4	0.081179999	12.856	-3.8050001	1.148
84	1	8	-0.48618701	13.827	-3.677	0.132
85	1	4	0.061110999	13.47	-4.4899998	-0.96600002
86	1	4	0.061110999	14.524	-4.342	-2.0610001
87	1	8	-0.48409	14.148	-5.086	-3.204
88	1	4	0.061110999	14.788	-6.3460002	-3.21
89	1	4	0.061110999	14.179	-7.2179999	-4.3060002
90	1	8	-0.48193201	12.779	-7.3330002	-4.1269999
91	1	4	0.053330999	12.463	-8.5129995	-3.4170001
92	1	4	0.075731002	10.973	-8.5159998	-3.0929999
93	1	10	-0.678451	10.635	-9.6630001	-2.362
94	1	11	0.39369699	10.601	-10.414	-3.0120001
95	1	6	0.091058001	10.376	-8.4619999	-4.0320001
96	1	6	0.091058001	10.731	-7.6209998	-2.48
97	1	6	0.091154002	12.694	-9.4060001	-4.04
98	1	6	0.091154002	13.029	-8.5719995	-2.4590001
99	1	6	0.090098001	14.706	-8.2010002	-4.349
100	1	6	0.090098001	14.359	-6.7259998	-5.2849998
101	1	6	0.090098001	15.873	-6.2179999	-3.425
102	1	6	0.090098001	14.676	-6.8699999	-2.234
103	1	6	0.090098001	14.576	-3.2720001	-2.3529999
104	1	6	0.090098001	15.533	-4.6110001	-1.664
105	1	6	0.090098001	12.485	-4.178	-1.383
106	1	6	0.090098001	13.419	-5.5599999	-0.66100001
107	1	6	0.090277001	11.857	-3.4749999	0.78100002
108	1	6	0.090277001	12.792	-4.8590002	1.503
109	1	6	0.094171003	13.323	-1.86	2.007
110	1	6	0.094171003	14.249	-3.2379999	2.7019999

Bonds

1	1	1	2
2	2	1	3
3	3	1	56
4	4	3	4
5	5	3	26
6	6	4	5
7	7	4	24
8	7	4	25
9	6	5	6
10	7	5	22
11	7	5	23
12	6	6	7
13	7	6	20
14	7	6	21
15	6	7	8
16	7	7	18
17	7	7	19
18	6	8	9
19	7	8	16
20	7	8	17
21	4	9	10
22	7	9	14
23	7	9	15
24	2	10	11
25	5	10	13
26	1	11	12
27	8	11	27
28	9	27	28
29	6	28	29
30	7	28	54
31	7	28	55
32	9	29	30
33	7	29	52
34	7	29	53
35	9	30	31
36	6	31	32
37	7	31	50
38	7	31	51
39	9	32	33
40	7	32	48
41	7	32	49
42	9	33	34
43	6	34	35
44	7	34	46
45	7	34	47
46	9	35	36
47	7	35	44
48	7	35	45
49	9	36	37
50	6	37	38
51	7	37	42
52	7	37	43
53	9	38	39
54	7	38	40
55	7	38	41
56	10	39	81
57	1	56	57
58	2	56	58
59	4	58	59
60	5	58	80
61	6	59	60
62	7	59	78
63	7	59	79
64	6	60	61
65	7	60	76
66	7	60	77
67	6	61	62
68	7	61	74
69	7	61	75
70	6	62	63
71	7	62	72
72	7	62	73
73	6	63	64
74	7	63	70
75	7	63	71
76	11	64	65
77	7	64	68
78	7	64	69
79	12	65	66
80	1	66	67
81	9	81	82
82	6	82	83
83	7	82	109
84	7	82	110
85	9	83	84
86	7	83	107
87	7	83	108
88	9	84	85
89	6	85	86
90	7	85	105
91	7	85	106
92	9	86	87
93	7	86	103
94	7	86	104
95	9	87	88
96	6	88	89
97	7	88	101
98	7	88	102
99	9	89	90
100	7	89	99
101	7	89	100
102	9	90	91
103	6	91	92
104	7	91	97
105	7	91	98
106	13	92	93
107	7	92	95
108	7	92	96
109	14	93	94

Angles

1	7	22	5	23
2	7	46	34	47
3	4	92	91	97
4	4	88	89	99
5	4	5	6	7
6	4	6	7	18
7	4	28	29	52
8	4	62	61	74
9	4	93	92	96
10	5	39	81	82
11	7	16	8	17
12	4	33	34	35
13	4	6	5	23
14	4	89	88	102
15	4	28	29	53
16	4	3	4	24
17	4	7	6	21
18	4	84	85	86
19	4	9	8	17
20	4	88	89	90
21	3	10	11	12
22	6	12	11	27
23	4	32	31	51
24	4	86	85	105
25	7	40	38	41
26	4	87	88	102
27	4	62	61	75
28	3	2	1	3
29	4	90	91	97
30	4	61	60	77
31	4	28	29	30
32	4	36	35	45
33	4	58	59	79
34	2	4	3	26
35	7	70	63	71
36	4	6	7	8
37	2	56	58	80
38	4	65	64	69
39	4	33	34	47
40	4	84	83	108
41	4	27	28	55
42	5	38	39	81
43	4	8	9	10
44	4	39	38	41
45	4	60	59	78
46	4	92	91	98
47	4	84	85	106
48	7	109	82	110
49	7	95	92	96
50	7	72	62	73
51	4	33	32	48
52	7	50	31	51
53	4	81	82	83
54	5	83	84	85
55	4	91	92	95
56	4	60	61	74
57	4	81	82	109
58	4	37	38	40
59	4	85	86	104
60	4	89	88	101
61	4	37	38	39
62	1	56	58	59
63	4	61	60	76
64	4	4	5	22
65	4	87	88	101
66	4	62	63	70
67	4	7	8	9
68	4	90	91	98
69	4	87	86	103
70	4	65	64	68
71	4	36	37	42
72	4	64	63	70
73	1	9	10	11
74	4	34	35	36
75	4	90	89	100
76	4	60	61	75
77	4	90	91	92
78	7	48	32	49
79	4	8	7	18
80	4	27	28	29
81	4	33	32	49
82	4	33	34	46
83	4	93	92	95
84	4	38	37	43
85	4	58	59	78
86	2	9	10	13
87	5	11	27	28
88	4	87	86	104
89	1	1	3	4
90	4	6	5	22
91	7	54	28	55
92	5	92	93	94
93	3	1	56	58
94	4	61	62	72
95	4	10	9	14
96	7	97	91	98
97	4	35	34	47
98	7	76	60	77
99	4	27	28	54
100	4	81	82	110
101	4	83	82	109
102	4	60	61	62
103	9	65	66	67
104	4	85	86	103
105	3	3	1	56
106	4	30	31	32
107	4	63	64	68
108	7	101	88	102
109	3	2	1	56
110	4	82	83	84
111	3	57	56	58
112	4	61	62	73
113	4	84	85	105
114	7	107	83	108
115	2	11	10	13
116	4	36	35	44
117	4	90	89	99
118	4	29	28	55
119	7	52	29	53
120	4	58	59	60
121	7	24	4	25
122	4	5	6	21
123	4	83	82	110
124	4	85	86	87
125	5	89	90	91
126	4	34	35	45
127	4	8	9	14
128	4	10	9	15
129	4	31	32	49
130	4	63	64	69
131	4	82	83	107
132	4	59	60	77
133	4	6	7	19
134	4	36	37	43
135	4	91	92	96
136	4	39	38	40
137	4	5	4	25
138	7	18	7	19
139	7	68	64	69
140	7	42	37	43
141	7	105	85	106
142	4	31	32	33
143	4	5	4	24
144	3	1	56	57
145	5	35	36	37
146	7	103	86	104
147	4	7	8	16
148	3	10	11	27
149	4	30	31	50
150	4	63	62	72
151	2	59	58	80
152	4	62	63	71
153	4	4	5	6
154	7	20	6	21
155	4	31	32	48
156	7	74	61	75
157	4	7	6	20
158	4	64	63	71
159	4	88	89	100
160	5	32	33	34
161	4	91	92	93
162	4	38	37	42
163	4	34	35	44
164	8	64	65	66
165	4	86	85	106
166	4	3	4	25
167	4	59	60	76
168	4	37	38	41
169	4	29	28	54
170	7	78	59	79
171	4	8	9	15
172	4	61	62	63
173	4	36	37	38
174	7	99	89	100
175	4	63	62	73
176	4	35	34	46
177	4	7	8	17
178	5	29	30	31
179	4	62	63	64
180	4	3	4	5
181	4	32	31	50
182	5	86	87	88
183	4	30	29	52
184	4	84	83	107
185	7	14	9	15
186	4	82	83	108
187	7	44	35	45
188	4	30	29	53
189	2	1	3	26
190	4	30	31	51
191	4	9	8	16
192	4	60	59	79
193	4	8	7	19
194	4	4	5	23
195	4	63	64	65
196	4	5	6	20
197	4	59	60	61
198	4	87	88	89

Dihedrals

1	27	45	35	34	47
2	27	107	83	82	109
3	18	64	63	62	73
4	14	3	4	5	23
5	22	37	36	35	45
6	22	11	27	28	54
7	5	13	10	9	15
7	6	13	10	9	15
8	27	96	92	91	97
9	18	7	6	5	22
10	22	29	30	31	50
11	27	103	86	85	106
12	27	69	64	63	70
13	27	75	61	60	77
14	7	1	56	58	80
14	8	1	56	58	80
15	18	61	62	63	71
16	27	21	6	5	22
17	5	24	4	3	26
17	6	24	4	3	26
18	22	89	90	91	98
19	19	10	11	27	28
20	22	31	30	29	52
21	32	35	36	37	38
21	33	35	36	37	38
22	27	53	29	28	54
23	30	90	91	92	96
23	31	90	91	92	96
24	27	95	92	91	97
25	27	74	61	60	76
26	27	71	63	62	72
27	5	60	59	58	80
27	6	60	59	58	80
28	5	11	10	9	15
28	6	11	10	9	15
29	32	89	90	91	92
29	33	89	90	91	92
30	22	85	84	83	107
31	27	19	7	6	20
32	27	14	9	8	17
33	27	68	64	63	70
34	18	62	61	60	77
35	27	99	89	88	101
36	30	36	37	38	40
36	31	36	37	38	40
37	30	87	86	85	105
37	31	87	86	85	105
38	30	30	29	28	55
38	31	30	29	28	55
39	18	7	8	9	15
40	7	9	10	11	12
40	8	9	10	11	12
41	22	85	84	83	108
42	28	36	37	38	39
42	29	36	37	38	39
43	14	58	59	60	77
44	7	13	10	11	27
44	8	13	10	11	27
45	22	31	30	29	53
46	30	33	34	35	44
46	31	33	34	35	44
47	22	39	81	82	83
48	30	81	82	83	107
48	31	81	82	83	107
49	5	25	4	3	26
49	6	25	4	3	26
50	22	35	36	37	43
51	15	59	60	61	62
51	16	59	60	61	62
51	17	59	60	61	62
52	7	1	56	58	59
52	8	1	56	58	59
53	27	40	38	37	42
54	22	39	81	82	109
55	27	22	5	4	25
56	27	49	32	31	50
57	15	61	62	63	64
57	16	61	62	63	64
57	17	61	62	63	64
58	27	107	83	82	110
59	18	8	7	6	21
60	14	62	63	64	65
61	27	41	38	37	43
62	27	70	63	62	73
63	22	37	36	35	44
64	22	83	84	85	106
65	27	71	63	62	73
66	27	69	64	63	71
67	22	37	38	39	81
68	27	75	61	60	76
69	30	93	92	91	97
69	31	93	92	91	97
70	32	82	83	84	85
70	33	82	83	84	85
71	27	108	83	82	110
72	20	11	27	28	29
72	21	11	27	28	29
73	27	20	6	5	22
74	27	104	86	85	106
75	27	52	29	28	55
76	15	6	7	8	9
76	16	6	7	8	9
76	17	6	7	8	9
77	30	84	85	86	103
77	31	84	85	86	103
78	32	28	29	30	31
78	33	28	29	30	31
79	27	96	92	91	98
80	5	56	58	59	79
80	6	56	58	59	79
81	27	18	7	6	20
82	27	95	92	91	98
83	30	39	38	37	43
83	31	39	38	37	43
84	22	29	30	31	51
85	27	16	8	7	19
86	27	68	64	63	71
87	30	27	28	29	52
87	31	27	28	29	52
88	9	57	56	58	59
88	10	57	56	58	59
89	5	1	3	4	24
89	6	1	3	4	24
90	30	33	32	31	50
90	31	33	32	31	50
91	27	104	86	85	105
92	18	59	60	61	75
93	22	40	38	39	81
94	30	87	88	89	100
94	31	87	88	89	100
95	30	84	85	86	104
95	31	84	85	86	104
96	5	79	59	58	80
96	6	79	59	58	80
97	35	66	65	64	69
98	30	36	35	34	47
98	31	36	35	34	47
99	13	2	1	56	58
100	25	12	11	27	28
100	26	12	11	27	28
101	27	48	32	31	50
102	1	1	3	4	5
102	2	1	3	4	5
102	3	1	3	4	5
102	4	1	3	4	5
103	22	39	81	82	110
104	30	27	28	29	53
104	31	27	28	29	53
105	14	3	4	5	22
106	27	100	89	88	102
107	7	26	3	1	56
107	8	26	3	1	56
108	30	30	29	28	54
108	31	30	29	28	54
109	39	94	93	92	96
110	22	86	87	88	102
111	27	103	86	85	105
112	18	9	8	7	18
113	15	5	6	7	8
113	16	5	6	7	8
113	17	5	6	7	8
114	28	27	28	29	30
114	29	27	28	29	30
115	27	16	8	7	18
116	18	4	5	6	21
117	18	61	60	59	79
118	30	90	91	92	95
118	31	90	91	92	95
119	30	93	92	91	98
119	31	93	92	91	98
120	27	49	32	31	51
121	22	88	87	86	103
122	30	90	89	88	102
122	31	90	89	88	102
123	30	81	82	83	108
123	31	81	82	83	108
124	27	45	35	34	46
125	35	66	65	64	68
126	13	3	1	56	58
127	18	60	61	62	72
128	27	22	5	4	24
129	28	90	91	92	93
129	29	90	91	92	93
130	27	77	60	59	79
131	5	56	58	59	78
131	6	56	58	59	78
132	30	36	35	34	46
132	31	36	35	34	46
133	14	7	8	9	10
134	22	88	87	86	104
135	32	86	87	88	89
135	33	86	87	88	89
136	30	33	32	31	51
136	31	33	32	31	51
137	22	83	84	85	105
138	30	84	83	82	109
138	31	84	83	82	109
139	27	100	89	88	101
140	18	62	61	60	76
141	30	87	88	89	99
141	31	87	88	89	99
142	22	35	36	37	42
143	14	58	59	60	76
144	9	2	1	3	4
144	10	2	1	3	4
145	27	15	9	8	16
146	34	38	39	81	82
147	18	8	7	6	20
148	18	60	61	62	73
149	22	91	90	89	100
150	35	63	64	65	66
151	28	30	31	32	33
151	29	30	31	32	33
152	13	2	1	56	57
153	32	32	33	34	35
153	33	32	33	34	35
154	36	64	65	66	67
155	30	90	89	88	101
155	31	90	89	88	101
156	27	108	83	82	109
157	28	84	85	86	87
157	29	84	85	86	87
158	27	72	62	61	74
159	18	6	7	8	16
160	18	61	60	59	78
161	7	4	3	1	56
161	8	4	3	1	56
162	30	36	37	38	41
162	31	36	37	38	41
163	27	76	60	59	79
164	18	6	5	4	25
165	30	30	31	32	48
165	31	30	31	32	48
166	37	91	92	93	94
166	38	91	92	93	94
167	30	39	38	37	42
167	31	39	38	37	42
168	28	33	34	35	36
168	29	33	34	35	36
169	39	94	93	92	95
170	32	31	32	33	34
170	33	31	32	33	34
171	30	33	34	35	45
171	31	33	34	35	45
172	18	62	63	64	68
173	1	56	58	59	60
173	2	56	58	59	60
173	3	56	58	59	60
173	4	56	58	59	60
174	27	19	7	6	21
175	18	7	6	5	23
176	27	15	9	8	17
177	27	72	62	61	75
178	27	77	60	59	78
179	27	52	29	28	54
180	22	32	33	34	47
181	27	44	35	34	47
182	27	21	6	5	23
183	7	9	10	11	27
183	8	9	10	11	27
184	13	3	1	56	57
185	14	58	59	60	61
186	27	40	38	37	43
187	14	10	9	8	16
188	28	81	82	83	84
188	29	81	82	83	84
189	32	34	35	36	37
189	33	34	35	36	37
190	18	4	5	6	20
191	14	3	4	5	6
192	18	6	7	8	17
193	30	87	86	85	106
193	31	87	86	85	106
194	22	11	27	28	55
195	32	29	30	31	32
195	33	29	30	31	32
196	30	30	31	32	49
196	31	30	31	32	49
197	22	34	33	32	49
198	5	5	4	3	26
198	6	5	4	3	26
199	15	4	5	6	7
199	16	4	5	6	7
199	17	4	5	6	7
200	22	41	38	39	81
201	14	65	64	63	70
202	27	17	8	7	19
203	27	70	63	62	72
204	27	48	32	31	51
205	22	86	87	88	101
206	5	13	10	9	14
206	6	13	10	9	14
207	18	62	63	64	69
208	32	83	84	85	86
208	33	83	84	85	86
209	1	8	9	10	11
209	2	8	9	10	11
209	3	8	9	10	11
209	4	8	9	10	11
210	27	53	29	28	55
211	27	23	5	4	25
212	18	5	6	7	19
213	22	91	90	89	99
214	32	85	86	87	88
214	33	85	86	87	88
215	27	18	7	6	21
216	27	73	62	61	74
217	22	89	90	91	97
218	11	2	1	3	26
218	12	2	1	3	26
219	27	41	38	37	42
220	18	63	62	61	74
221	5	11	10	9	14
221	6	11	10	9	14
222	27	23	5	4	24
223	5	78	59	58	80
223	6	78	59	58	80
224	18	61	62	63	70
225	15	60	61	62	63
225	16	60	61	62	63
225	17	60	61	62	63
226	5	8	9	10	13
226	6	8	9	10	13
227	18	64	63	62	72
228	27	76	60	59	78
229	28	87	88	89	90
229	29	87	88	89	90
230	27	20	6	5	23
231	22	32	33	34	46
232	27	44	35	34	46
233	14	10	9	8	17
234	18	7	8	9	14
235	27	74	61	60	77
236	27	99	89	88	102
237	11	57	56	58	80
237	12	57	56	58	80
238	27	17	8	7	18
239	23	12	11	10	13
239	24	12	11	10	13
240	22	34	33	32	48
241	27	73	62	61	75
242	18	63	62	61	75
243	18	59	60	61	74
244	27	14	9	8	16
245	18	6	5	4	24
246	18	5	6	7	18
247	14	65	64	63	71
248	30	84	83	82	110
248	31	84	83	82	110
249	18	9	8	7	19
250	32	88	89	90	91
250	33	88	89	90	91
251	5	1	3	4	25
251	6	1	3	4	25

Impropers

7	3	11	12	27	10
39	2	1	2	3	56
83	2	56	1	57	58
112	2	1	56	2	3
133	2	56	58	1	57
141	1	58	59	80	56
200	1	3	4	26	1
209	1	10	11	13	9
367	1	10	9	11	13
372	3	11	27	10	12
459	1	3	26	1	4
482	1	3	1	4	26
615	2	56	57	58	1
617	3	11	10	12	27
638	1	58	80	56	59
673	1	58	56	59	80
685	2	1	3	56	2
700	1	10	13	9	11
