Title

110 atoms
109 bonds
198 angles
354 dihedrals
18 impropers

11 atom types
14 bond types
9 angle types
39 dihedral types
3 improper types
-12.50599957 87.49400043 xlo xhi
-10.41399956 89.58600044 ylo yhi
-7.673999786 92.32600021 zlo zhi
0.0 0.0 0.0 xy xz yz

Masses

1	12.01078
2	15.99943
3	14.00672
4	12.01078
5	1.007947
6	1.007947
7	1.007947
8	15.99943
9	12.01078
10	15.99943
11	1.007947


Pair Coeffs

1	0.086879315	3.4806469
2	0.2102061	3.0398122
3	0.16769152	3.206876
4	0.10884061	3.3795318
5	0.014090815	1.1034277
6	0.016409246	2.5832257
7	0.015779483	2.6445434
8	0.16846514	3.0251065
9	0.21	3.3996695
10	0.20947353	2.99716
11	1.2326e-05	0.53453923

Bond Coeffs

1 harmonic	582.698766451	1.225198386222
2 harmonic	492.76746816345	1.381897776683
3 harmonic	279.1350963404	1.454628925034
4 harmonic	352.0565580496	1.450098586273
5 harmonic	505.144496193	1.019481865027
6 harmonic	264.62148576755	1.52190126495
7 harmonic	370.04670688625	1.093899492634
8 harmonic	301.15400723785	1.345741232799
9 harmonic	366.7408841747	1.425895053732
10 harmonic	300.03137914615	1.451203938761
11 harmonic	366.34047229585	1.464762957261
12 harmonic	602.81384337	1.196112346392
13 harmonic	329.96998057905	1.427343958716
14 harmonic	543.5267831885	0.9716763312559


Angle Coeffs

1 harmonic	55.42182150775	117.3465570514
2 harmonic	63.44422595415	115.5071327674
3 harmonic	57.8982893754	126.8062420451
4 harmonic	53.20531626545	116.5475862634
5 harmonic	65.09061609600001	110.3538806181
6 harmonic	201.41175231035	127.4691416191
7 harmonic	48.776492647595	115.6030999533
8 harmonic	55.07882548015	112.8714009681
9 harmonic	33.56981613361	180


Dihedral Coeffs

1 fourier 1	-0.1488678166443	4	180
2 fourier 1	-0.1230328948768	3	180
3 fourier 1	0.2939295466901	2	0
4 fourier 1	-0.3024127022865	1	0
5 fourier 1	0.182238503271	2	0
6 fourier 1	0.02972342374561	3	0
7 fourier 1	1.809047390003	2	180
8 fourier 1	-0.04816277792592	1	0
9 fourier 1	3.101948770557	2	180
10 fourier 1	-0.4252153282372	1	0
11 fourier 1	2.348375642009	2	180
12 fourier 1	1.256156174911	1	0
13 fourier 1	0.9974165607242	2	180
14 fourier 1	0.1155372516788	3	0
15 fourier 1	0.09223874044423	3	0
16 fourier 1	0.3159935921949	2	180
17 fourier 1	0.3247796806857	1	180
18 fourier 1	0.1040663847541	3	0
19 fourier 1	2.779853741805	2	180
20 fourier 1	0.1918272375143	3	0
21 fourier 1	0.9202179876409	1	180
22 fourier 1	0.0473758381877	3	0
23 fourier 1	0.4860993122944	2	180
24 fourier 1	0.8916986138746	1	0
25 fourier 1	1.163809172478	2	180
26 fourier 1	0.1679186987369	1	180
27 fourier 1	0.1911926717192	3	0
28 fourier 1	-0.0309670556842	3	0
29 fourier 1	0.4598191477945	2	0
30 fourier 1	0.1115525666802	3	0
31 fourier 1	0.3432490222662	1	0
32 fourier 1	0.4552156463534	3	0
33 fourier 1	-0.03687743385131	2	180
34 fourier 1	0.457973137376	1	0
35 fourier 1	-1.382973039546	1	0
36 fourier 1	0	1	0
37 fourier 1	0.3445382149273	3	0
38 fourier 1	0.1364556373303	1	0
39 fourier 1	0.3026390167484	3	0


Improper Coeffs

1 0.3333333333333333	-1	2
2 0.3666666666666667	-1	2
3 3.5	-1	2


Atoms

1	1	1	0.545834	-4.6939998	1.331	-0.38600001
2	1	2	-0.66794503	-5.1230001	1.428	0.79500002
3	1	3	-0.51875401	-3.4430001	0.69599998	-0.66100001
4	1	4	0.032974001	-2.6159999	0.13600001	0.40700001
5	1	4	-0.144072	-1.3329999	-0.479	-0.161
6	1	4	-0.14071999	-0.45199999	-1.053	0.95899999
7	1	4	-0.14071999	0.75700003	-1.8430001	0.42699999
8	1	4	-0.14278001	1.749	-1.023	-0.41800001
9	1	4	0.027225001	2.3959999	0.12800001	0.36399999
10	1	3	-0.46197701	3.4519999	0.76200002	-0.42399999
11	1	1	0.788279	4.2150002	1.858	0.088
12	1	2	-0.59416997	3.9979999	2.3099999	1.244
13	1	5	0.329523	3.668	0.42500001	-1.39
14	1	6	0.062789999	1.6289999	0.89200002	0.61000001
15	1	6	0.062789999	2.832	-0.264	1.309
16	1	7	0.092495002	1.249	-0.62900001	-1.3279999
17	1	7	0.092495002	2.55	-1.7130001	-0.75999999
18	1	7	0.091165997	1.301	-2.2809999	1.293
19	1	7	0.091165997	0.38800001	-2.6930001	-0.186
20	1	7	0.091165997	-0.114	-0.237	1.633
21	1	7	0.091165997	-1.063	-1.749	1.574
22	1	7	0.092495002	-0.77499998	0.31	-0.708
23	1	7	0.092495002	-1.602	-1.289	-0.875
24	1	6	0.059160002	-3.1960001	-0.64499998	0.94499999
25	1	6	0.059160002	-2.352	0.94400001	1.125
26	1	5	0.322943	-3.1300001	0.63999999	-1.6569999
27	1	8	-0.49354601	4.9559999	2.2869999	-0.49700001
28	1	4	0.107076	5.3150001	1.33	-1.456
29	1	4	0.080248997	6.2069998	0.26100001	-0.82999998
30	1	8	-0.48399299	6.5819998	-0.667	-1.826
31	1	4	0.060853001	7.4089999	-1.66	-1.257
32	1	4	0.061110999	7.8070002	-2.6600001	-2.339
33	1	8	-0.48409	8.5710001	-3.71	-1.777
34	1	4	0.061110999	9.9519997	-3.4679999	-1.952
35	1	4	0.061110999	10.751	-4.473	-1.125
36	1	8	-0.48618701	10.367	-4.4109998	0.237
37	1	4	0.081179999	11.237	-3.566	0.95999998
38	1	4	0.03087	10.695	-3.3870001	2.375
39	1	8	-0.13846099	11.524	-2.5280001	3.1099999
40	1	6	0.094171003	10.611	-4.375	2.882
41	1	6	0.094171003	9.6789999	-2.9400001	2.323
42	1	6	0.090277001	12.251	-4.0240002	1.023
43	1	6	0.090277001	11.313	-2.562	0.48500001
44	1	6	0.090098001	11.844	-4.3189998	-1.288
45	1	6	0.090098001	10.522	-5.494	-1.499
46	1	6	0.090098001	10.226	-3.5969999	-3.023
47	1	6	0.090098001	10.233	-2.4400001	-1.631
48	1	6	0.090098001	6.8800001	-3.1029999	-2.7620001
49	1	6	0.090098001	8.3179998	-2.135	-3.181
50	1	6	0.090098001	6.868	-2.21	-0.45300001
51	1	6	0.090098001	8.3330002	-1.204	-0.83399999
52	1	6	0.088703997	5.6360002	-0.243	-0.017000001
53	1	6	0.088703997	7.105	0.76099998	-0.39899999
54	1	6	0.096654996	4.4060001	0.86000001	-1.896
55	1	6	0.096654996	5.8699999	1.837	-2.273
56	1	1	0.545834	-5.2810001	1.734	-1.2
57	1	2	-0.66794503	-5.3039999	1.13	-2.3050001
58	1	3	-0.51875401	-6.013	2.95	-1.011
59	1	4	0.032974001	-6.8260002	3.556	-2.0639999
60	1	4	-0.144072	-8.1389999	2.786	-2.2379999
61	1	4	-0.14053801	-9.0120001	3.427	-3.3280001
62	1	4	-0.136343	-10.394	2.7650001	-3.4449999
63	1	4	-0.120525	-10.327	1.36	-4.0650001
64	1	4	0.18628301	-11.726	0.75800002	-4.27
65	1	3	-0.62014902	-12.506	1.5190001	-5.2420001
66	1	9	0.59469002	-12.193	1.558	-6.4749999
67	1	2	-0.441553	-11.887	1.597	-7.6739998
68	1	6	0.036729001	-11.632	-0.29699999	-4.6100001
69	1	6	0.036729001	-12.269	0.75099999	-3.3010001
70	1	7	0.086103	-9.7629995	0.68199998	-3.3900001
71	1	7	0.086103	-9.7910004	1.397	-5.0380001
72	1	7	0.089876004	-10.874	2.7149999	-2.4430001
73	1	7	0.089876004	-11.027	3.415	-4.0879998
74	1	7	0.091165997	-9.1660004	4.4990001	-3.079
75	1	7	0.091165997	-8.4879999	3.381	-4.3080001
76	1	7	0.092495002	-7.9089999	1.7359999	-2.513
77	1	7	0.092495002	-8.6890001	2.7869999	-1.271
78	1	6	0.059160002	-6.2540002	3.572	-3.0179999
79	1	6	0.059160002	-7.053	4.6069999	-1.783
80	1	5	0.322943	-5.9109998	3.4530001	-0.101
81	1	8	-0.13846099	12.322	-3.0580001	3.3710001
82	1	4	0.03087	13.251	-2.924	2.3299999
83	1	4	0.081179999	12.856	-3.8050001	1.148
84	1	8	-0.48618701	13.827	-3.677	0.132
85	1	4	0.061110999	13.47	-4.4899998	-0.96600002
86	1	4	0.061110999	14.524	-4.342	-2.0610001
87	1	8	-0.48409	14.148	-5.086	-3.204
88	1	4	0.061110999	14.788	-6.3460002	-3.21
89	1	4	0.061110999	14.179	-7.2179999	-4.3060002
90	1	8	-0.48193201	12.779	-7.3330002	-4.1269999
91	1	4	0.053330999	12.463	-8.5129995	-3.4170001
92	1	4	0.075731002	10.973	-8.5159998	-3.0929999
93	1	10	-0.678451	10.635	-9.6630001	-2.362
94	1	11	0.39369699	10.601	-10.414	-3.0120001
95	1	6	0.091058001	10.376	-8.4619999	-4.0320001
96	1	6	0.091058001	10.731	-7.6209998	-2.48
97	1	6	0.091154002	12.694	-9.4060001	-4.04
98	1	6	0.091154002	13.029	-8.5719995	-2.4590001
99	1	6	0.090098001	14.706	-8.2010002	-4.349
100	1	6	0.090098001	14.359	-6.7259998	-5.2849998
101	1	6	0.090098001	15.873	-6.2179999	-3.425
102	1	6	0.090098001	14.676	-6.8699999	-2.234
103	1	6	0.090098001	14.576	-3.2720001	-2.3529999
104	1	6	0.090098001	15.533	-4.6110001	-1.664
105	1	6	0.090098001	12.485	-4.178	-1.383
106	1	6	0.090098001	13.419	-5.5599999	-0.66100001
107	1	6	0.090277001	11.857	-3.4749999	0.78100002
108	1	6	0.090277001	12.792	-4.8590002	1.503
109	1	6	0.094171003	13.323	-1.86	2.007
110	1	6	0.094171003	14.249	-3.2379999	2.7019999

Bonds

1	1	1	2
2	2	1	3
3	3	1	56
4	4	3	4
5	5	3	26
6	6	4	5
7	7	4	24
8	7	4	25
9	6	5	6
10	7	5	22
11	7	5	23
12	6	6	7
13	7	6	20
14	7	6	21
15	6	7	8
16	7	7	18
17	7	7	19
18	6	8	9
19	7	8	16
20	7	8	17
21	4	9	10
22	7	9	14
23	7	9	15
24	2	10	11
25	5	10	13
26	1	11	12
27	8	11	27
28	9	27	28
29	6	28	29
30	7	28	54
31	7	28	55
32	9	29	30
33	7	29	52
34	7	29	53
35	9	30	31
36	6	31	32
37	7	31	50
38	7	31	51
39	9	32	33
40	7	32	48
41	7	32	49
42	9	33	34
43	6	34	35
44	7	34	46
45	7	34	47
46	9	35	36
47	7	35	44
48	7	35	45
49	9	36	37
50	6	37	38
51	7	37	42
52	7	37	43
53	9	38	39
54	7	38	40
55	7	38	41
56	10	39	81
57	1	56	57
58	2	56	58
59	4	58	59
60	5	58	80
61	6	59	60
62	7	59	78
63	7	59	79
64	6	60	61
65	7	60	76
66	7	60	77
67	6	61	62
68	7	61	74
69	7	61	75
70	6	62	63
71	7	62	72
72	7	62	73
73	6	63	64
74	7	63	70
75	7	63	71
76	11	64	65
77	7	64	68
78	7	64	69
79	12	65	66
80	1	66	67
81	9	81	82
82	6	82	83
83	7	82	109
84	7	82	110
85	9	83	84
86	7	83	107
87	7	83	108
88	9	84	85
89	6	85	86
90	7	85	105
91	7	85	106
92	9	86	87
93	7	86	103
94	7	86	104
95	9	87	88
96	6	88	89
97	7	88	101
98	7	88	102
99	9	89	90
100	7	89	99
101	7	89	100
102	9	90	91
103	6	91	92
104	7	91	97
105	7	91	98
106	13	92	93
107	7	92	95
108	7	92	96
109	14	93	94

Angles

1	4	91	92	96
2	4	30	31	50
3	4	32	31	51
4	7	40	38	41
5	4	4	5	23
6	4	29	28	55
7	4	37	38	41
8	4	3	4	24
9	2	11	10	13
10	7	74	61	75
11	3	3	1	56
12	4	28	29	53
13	3	2	1	56
14	4	3	4	25
15	4	34	35	36
16	7	97	91	98
17	4	85	86	104
18	4	7	8	17
19	4	60	61	75
20	4	58	59	78
21	7	109	82	110
22	4	30	31	51
23	4	39	38	40
24	4	90	91	92
25	4	5	6	21
26	4	93	92	95
27	7	44	35	45
28	4	33	34	47
29	7	101	88	102
30	3	1	56	58
31	4	61	62	72
32	4	82	83	108
33	7	54	28	55
34	5	83	84	85
35	4	86	85	106
36	4	8	7	18
37	4	64	63	71
38	4	59	60	76
39	4	84	85	106
40	4	62	63	70
41	4	6	7	19
42	4	39	38	41
43	4	6	7	18
44	4	27	28	55
45	4	63	62	73
46	7	107	83	108
47	4	9	8	17
48	4	37	38	40
49	4	88	89	90
50	3	2	1	3
51	4	31	32	49
52	4	8	9	10
53	4	91	92	95
54	4	31	32	48
55	5	11	27	28
56	4	63	62	72
57	4	59	60	77
58	4	30	29	52
59	4	85	86	87
60	7	48	32	49
61	7	14	9	15
62	4	7	6	20
63	4	58	59	60
64	4	85	86	103
65	1	1	3	4
66	7	72	62	73
67	2	56	58	80
68	4	33	32	49
69	4	33	32	48
70	4	60	61	74
71	4	82	83	84
72	4	92	91	98
73	7	52	29	53
74	4	27	28	54
75	7	99	89	100
76	4	61	62	73
77	6	12	11	27
78	4	37	38	39
79	4	90	91	98
80	4	87	88	102
81	4	36	35	44
82	4	36	35	45
83	4	8	7	19
84	4	5	6	7
85	4	83	82	109
86	4	30	31	32
87	4	83	82	110
88	7	46	34	47
89	4	88	89	100
90	4	30	29	53
91	4	7	8	9
92	4	4	5	22
93	4	33	34	46
94	4	29	28	54
95	4	87	88	89
96	4	81	82	109
97	7	22	5	23
98	4	38	37	42
99	7	16	8	17
100	4	63	64	68
101	4	81	82	110
102	4	10	9	15
103	4	84	83	108
104	4	62	61	75
105	7	42	37	43
106	7	18	7	19
107	5	35	36	37
108	7	24	4	25
109	7	78	59	79
110	4	6	7	8
111	4	28	29	30
112	7	50	31	51
113	4	8	9	15
114	4	7	6	21
115	4	6	5	23
116	4	87	86	104
117	4	36	37	42
118	4	35	34	47
119	4	82	83	107
120	4	5	4	25
121	3	10	11	27
122	4	27	28	29
123	4	63	64	69
124	7	76	60	77
125	4	81	82	83
126	2	9	10	13
127	7	105	85	106
128	4	63	64	65
129	4	87	88	101
130	4	7	8	16
131	7	20	6	21
132	4	84	83	107
133	4	90	89	100
134	4	92	91	97
135	4	64	63	70
136	4	60	59	79
137	2	4	3	26
138	7	68	64	69
139	4	88	89	99
140	7	95	92	96
141	7	70	63	71
142	4	90	91	97
143	4	38	37	43
144	3	57	56	58
145	5	92	93	94
146	8	64	65	66
147	5	39	81	82
148	4	62	63	71
149	4	89	88	102
150	5	32	33	34
151	5	38	39	81
152	5	86	87	88
153	4	84	85	86
154	4	36	37	38
155	4	62	61	74
156	4	65	64	68
157	4	61	60	76
158	4	58	59	79
159	4	60	59	78
160	3	1	56	57
161	2	1	3	26
162	4	86	85	105
163	4	9	8	16
164	1	9	10	11
165	4	59	60	61
166	3	10	11	12
167	4	33	34	35
168	4	10	9	14
169	4	84	85	105
170	1	56	58	59
171	7	103	86	104
172	4	87	86	103
173	4	5	4	24
174	9	65	66	67
175	4	36	37	43
176	2	59	58	80
177	4	61	62	63
178	4	3	4	5
179	4	61	60	77
180	4	60	61	62
181	4	8	9	14
182	5	29	30	31
183	4	4	5	6
184	4	65	64	69
185	4	32	31	50
186	4	35	34	46
187	4	90	89	99
188	4	31	32	33
189	4	5	6	20
190	4	34	35	44
191	4	93	92	96
192	4	28	29	52
193	4	34	35	45
194	4	62	63	64
195	5	89	90	91
196	4	89	88	101
197	4	91	92	93
198	4	6	5	22

Dihedrals

1	32	83	84	85	86
1	33	83	84	85	86
2	18	8	7	6	21
3	27	96	92	91	97
4	15	59	60	61	62
4	16	59	60	61	62
4	17	59	60	61	62
5	18	7	8	9	14
6	5	11	10	9	15
6	6	11	10	9	15
7	30	27	28	29	53
7	31	27	28	29	53
8	30	87	86	85	106
8	31	87	86	85	106
9	15	5	6	7	8
9	16	5	6	7	8
9	17	5	6	7	8
10	13	2	1	56	58
11	27	74	61	60	77
12	27	17	8	7	19
13	5	11	10	9	14
13	6	11	10	9	14
14	22	91	90	89	100
15	14	58	59	60	61
16	7	4	3	1	56
16	8	4	3	1	56
17	22	31	30	29	53
18	5	56	58	59	79
18	6	56	58	59	79
19	14	65	64	63	70
20	32	85	86	87	88
20	33	85	86	87	88
21	30	39	38	37	42
21	31	39	38	37	42
22	14	62	63	64	65
23	27	104	86	85	106
24	22	35	36	37	42
25	27	72	62	61	75
26	18	6	7	8	16
27	32	28	29	30	31
27	33	28	29	30	31
28	7	1	56	58	80
28	8	1	56	58	80
29	15	4	5	6	7
29	16	4	5	6	7
29	17	4	5	6	7
30	7	9	10	11	27
30	8	9	10	11	27
31	27	41	38	37	42
32	30	84	83	82	109
32	31	84	83	82	109
33	22	89	90	91	97
34	25	12	11	27	28
34	26	12	11	27	28
35	27	20	6	5	22
36	18	61	62	63	71
37	18	63	62	61	75
38	30	84	83	82	110
38	31	84	83	82	110
39	30	90	91	92	95
39	31	90	91	92	95
40	18	61	60	59	78
41	20	11	27	28	29
41	21	11	27	28	29
42	27	95	92	91	98
43	19	10	11	27	28
44	22	83	84	85	106
45	14	3	4	5	6
46	5	56	58	59	78
46	6	56	58	59	78
47	22	88	87	86	103
48	27	15	9	8	17
49	22	32	33	34	47
50	30	93	92	91	97
50	31	93	92	91	97
51	32	82	83	84	85
51	33	82	83	84	85
52	27	69	64	63	71
53	22	91	90	89	99
54	1	1	3	4	5
54	2	1	3	4	5
54	3	1	3	4	5
54	4	1	3	4	5
55	18	9	8	7	18
56	27	16	8	7	18
57	27	21	6	5	22
58	9	2	1	3	4
58	10	2	1	3	4
59	37	91	92	93	94
59	38	91	92	93	94
60	18	60	61	62	73
61	22	85	84	83	108
62	27	74	61	60	76
63	13	3	1	56	58
64	32	35	36	37	38
64	33	35	36	37	38
65	18	60	61	62	72
66	27	77	60	59	78
67	27	45	35	34	47
68	5	25	4	3	26
68	6	25	4	3	26
69	18	64	63	62	73
70	30	30	31	32	49
70	31	30	31	32	49
71	18	59	60	61	75
72	30	30	31	32	48
72	31	30	31	32	48
73	7	13	10	11	27
73	8	13	10	11	27
74	22	41	38	39	81
75	7	9	10	11	12
75	8	9	10	11	12
76	30	33	32	31	51
76	31	33	32	31	51
77	27	100	89	88	102
78	18	4	5	6	20
79	27	23	5	4	24
80	27	44	35	34	47
81	18	64	63	62	72
82	30	39	38	37	43
82	31	39	38	37	43
83	27	103	86	85	106
84	14	10	9	8	16
85	14	3	4	5	23
86	22	35	36	37	43
87	27	41	38	37	43
88	27	14	9	8	16
89	27	72	62	61	74
90	27	23	5	4	25
91	27	75	61	60	76
92	27	76	60	59	79
93	27	22	5	4	24
94	18	63	62	61	74
95	28	33	34	35	36
95	29	33	34	35	36
96	5	5	4	3	26
96	6	5	4	3	26
97	5	8	9	10	13
97	6	8	9	10	13
98	22	29	30	31	51
99	32	34	35	36	37
99	33	34	35	36	37
100	22	85	84	83	107
101	5	1	3	4	24
101	6	1	3	4	24
102	14	7	8	9	10
103	27	22	5	4	25
104	27	99	89	88	102
105	27	104	86	85	105
106	28	84	85	86	87
106	29	84	85	86	87
107	27	49	32	31	51
108	30	33	32	31	50
108	31	33	32	31	50
109	22	39	81	82	109
110	27	19	7	6	20
111	22	39	81	82	110
112	27	95	92	91	97
113	27	75	61	60	77
114	30	33	34	35	44
114	31	33	34	35	44
115	5	1	3	4	25
115	6	1	3	4	25
116	30	33	34	35	45
116	31	33	34	35	45
117	18	9	8	7	19
118	9	57	56	58	59
118	10	57	56	58	59
119	27	16	8	7	19
120	27	76	60	59	78
121	39	94	93	92	96
122	5	13	10	9	15
122	6	13	10	9	15
123	22	32	33	34	46
124	14	58	59	60	76
125	27	18	7	6	20
126	35	66	65	64	69
127	27	68	64	63	70
128	22	11	27	28	55
129	30	84	85	86	104
129	31	84	85	86	104
130	5	24	4	3	26
130	6	24	4	3	26
131	28	87	88	89	90
131	29	87	88	89	90
132	28	27	28	29	30
132	29	27	28	29	30
133	18	7	6	5	23
134	22	29	30	31	50
135	27	100	89	88	101
136	27	70	63	62	72
137	27	107	83	82	109
138	7	1	56	58	59
138	8	1	56	58	59
139	27	73	62	61	75
140	27	49	32	31	50
141	32	89	90	91	92
141	33	89	90	91	92
142	27	107	83	82	110
143	14	58	59	60	77
144	18	4	5	6	21
145	18	6	7	8	17
146	30	30	29	28	55
146	31	30	29	28	55
147	27	45	35	34	46
148	22	39	81	82	83
149	5	79	59	58	80
149	6	79	59	58	80
150	18	6	5	4	24
151	32	31	32	33	34
151	33	31	32	33	34
152	30	36	35	34	47
152	31	36	35	34	47
153	14	65	64	63	71
154	27	52	29	28	55
155	15	61	62	63	64
155	16	61	62	63	64
155	17	61	62	63	64
156	27	44	35	34	46
157	22	40	38	39	81
158	36	64	65	66	67
159	35	66	65	64	68
160	30	87	86	85	105
160	31	87	86	85	105
161	18	6	5	4	25
162	27	48	32	31	50
163	22	86	87	88	102
164	13	2	1	56	57
165	11	2	1	3	26
165	12	2	1	3	26
166	22	31	30	29	52
167	27	40	38	37	42
168	1	56	58	59	60
168	2	56	58	59	60
168	3	56	58	59	60
168	4	56	58	59	60
169	18	62	61	60	76
170	27	99	89	88	101
171	18	62	63	64	68
172	22	11	27	28	54
173	30	90	89	88	102
173	31	90	89	88	102
174	28	30	31	32	33
174	29	30	31	32	33
175	32	86	87	88	89
175	33	86	87	88	89
176	35	63	64	65	66
177	27	19	7	6	21
178	27	20	6	5	23
179	30	36	37	38	40
179	31	36	37	38	40
180	32	29	30	31	32
180	33	29	30	31	32
181	30	81	82	83	108
181	31	81	82	83	108
182	27	53	29	28	55
183	18	5	6	7	18
184	5	60	59	58	80
184	6	60	59	58	80
185	27	15	9	8	16
186	32	88	89	90	91
186	33	88	89	90	91
187	39	94	93	92	95
188	27	96	92	91	98
189	18	7	8	9	15
190	30	87	88	89	100
190	31	87	88	89	100
191	18	62	61	60	77
192	30	84	85	86	103
192	31	84	85	86	103
193	27	18	7	6	21
194	30	30	29	28	54
194	31	30	29	28	54
195	7	26	3	1	56
195	8	26	3	1	56
196	27	68	64	63	71
197	18	8	7	6	20
198	22	83	84	85	105
199	22	34	33	32	49
200	11	57	56	58	80
200	12	57	56	58	80
201	30	36	37	38	41
201	31	36	37	38	41
202	14	3	4	5	22
203	22	34	33	32	48
204	27	70	63	62	73
205	27	48	32	31	51
206	5	13	10	9	14
206	6	13	10	9	14
207	27	21	6	5	23
208	27	52	29	28	54
209	18	61	60	59	79
210	18	62	63	64	69
211	14	10	9	8	17
212	32	32	33	34	35
212	33	32	33	34	35
213	18	59	60	61	74
214	27	14	9	8	17
215	27	17	8	7	18
216	1	8	9	10	11
216	2	8	9	10	11
216	3	8	9	10	11
216	4	8	9	10	11
217	27	73	62	61	74
218	22	37	38	39	81
219	5	78	59	58	80
219	6	78	59	58	80
220	22	89	90	91	98
221	22	37	36	35	44
222	27	108	83	82	109
223	22	37	36	35	45
224	27	108	83	82	110
225	13	3	1	56	57
226	28	90	91	92	93
226	29	90	91	92	93
227	30	81	82	83	107
227	31	81	82	83	107
228	28	36	37	38	39
228	29	36	37	38	39
229	30	27	28	29	52
229	31	27	28	29	52
230	22	86	87	88	101
231	18	61	62	63	70
232	27	53	29	28	54
233	27	71	63	62	73
234	30	93	92	91	98
234	31	93	92	91	98
235	27	40	38	37	43
236	30	90	91	92	96
236	31	90	91	92	96
237	30	36	35	34	46
237	31	36	35	34	46
238	30	90	89	88	101
238	31	90	89	88	101
239	28	81	82	83	84
239	29	81	82	83	84
240	27	77	60	59	79
241	23	12	11	10	13
241	24	12	11	10	13
242	15	60	61	62	63
242	16	60	61	62	63
242	17	60	61	62	63
243	15	6	7	8	9
243	16	6	7	8	9
243	17	6	7	8	9
244	34	38	39	81	82
245	27	71	63	62	72
246	27	103	86	85	105
247	27	69	64	63	70
248	22	88	87	86	104
249	30	87	88	89	99
249	31	87	88	89	99
250	18	7	6	5	22
251	18	5	6	7	19

Impropers

103	2	56	57	58	1
155	3	11	12	27	10
170	1	58	80	56	59
239	2	56	58	1	57
248	3	11	27	10	12
265	2	56	1	57	58
337	1	10	13	9	11
366	1	3	1	4	26
384	2	1	2	3	56
422	1	3	26	1	4
472	1	3	4	26	1
484	2	1	56	2	3
491	2	1	3	56	2
545	3	11	10	12	27
565	1	10	11	13	9
610	1	10	9	11	13
641	1	58	56	59	80
661	1	58	59	80	56
