Title

414 atoms
422 bonds
743 angles
1428 dihedrals
291 impropers

12 atom types
15 bond types
10 angle types
31 dihedral types
3 improper types
-32.27099991 67.72900009 xlo xhi
-5.244999886 94.75500011 ylo yhi
-13.93599987 86.06400013 zlo zhi
0.0 0.0 0.0 xy xz yz

Masses

1	12.01078
2	15.99943
3	14.00672
4	12.01078
5	1.007947
6	1.007947
7	1.007947
8	15.99943
9	1.007947
10	15.99943
11	1.007947
12	12.01078


Pair Coeffs

1	0.086879315	3.4806469
2	0.2102061	3.0398122
3	0.16769152	3.206876
4	0.10884061	3.3795318
5	0.014090815	1.1034277
6	0.016409246	2.5832257
7	0.015779483	2.6445434
8	0.16846514	3.0251065
9	0.015611343	2.5725815
10	0.20947353	2.99716
11	1.2326e-05	0.53453923
12	0.21	3.3996695

Bond Coeffs

1 harmonic	582.698766451	1.225198386222
2 harmonic	492.76746816345	1.381897776683
3 harmonic	301.15400723785	1.345741232799
4 harmonic	352.0565580496	1.450098586273
5 harmonic	505.144496193	1.019481865027
6 harmonic	264.62148576755	1.52190126495
7 harmonic	370.04670688625	1.093899492634
8 harmonic	366.7408841747	1.425895053732
9 harmonic	366.34047229585	1.464762957261
10 harmonic	390.03554688505	1.390160554689
11 harmonic	360.7852444772	1.387193227181
12 harmonic	397.2545789619	1.085358495916
13 harmonic	329.96998057905	1.427343958716
14 harmonic	543.5267831885	0.9716763312559
15 harmonic	602.81384337	1.196112346392


Angle Coeffs

1 harmonic	55.42182150775	117.3465570514
2 harmonic	63.44422595415	115.5071327674
3 harmonic	65.09061609600001	110.3538806181
4 harmonic	57.8982893754	126.8062420451
5 harmonic	201.41175231035	127.4691416191
6 harmonic	53.20531626545	116.5475862634
7 harmonic	48.776492647595	115.6030999533
8 harmonic	34.066775159195	129.1835929926
9 harmonic	55.07882548015	112.8714009681
10 harmonic	33.56981613361	180


Dihedral Coeffs

1 fourier 1	-0.1488678166443	4	180
2 fourier 1	-0.1230328948768	3	180
3 fourier 1	0.2939295466901	2	0
4 fourier 1	-0.3024127022865	1	0
5 fourier 1	0.182238503271	2	0
6 fourier 1	0.02972342374561	3	0
7 fourier 1	0.1918272375143	3	0
8 fourier 1	0.9202179876409	1	180
9 fourier 1	0.0473758381877	3	0
10 fourier 1	1.809047390003	2	180
11 fourier 1	-0.04816277792592	1	0
12 fourier 1	0.4860993122944	2	180
13 fourier 1	0.8916986138746	1	0
14 fourier 1	1.163809172478	2	180
15 fourier 1	0.1679186987369	1	180
16 fourier 1	2.779853741805	2	180
17 fourier 1	0.1155372516788	3	0
18 fourier 1	0.09223874044423	3	0
19 fourier 1	0.3159935921949	2	180
20 fourier 1	0.3247796806857	1	180
21 fourier 1	0.1040663847541	3	0
22 fourier 1	0.1911926717192	3	0
23 fourier 1	0.1115525666802	3	0
24 fourier 1	0.3432490222662	1	0
25 fourier 1	1.193093382682	2	180
26 fourier 1	3.661930099076	2	180
27 fourier 1	0.3445382149273	3	0
28 fourier 1	0.1364556373303	1	0
29 fourier 1	0.3026390167484	3	0
30 fourier 1	-1.382973039546	1	0
31 fourier 1	0	1	0


Improper Coeffs

1 0.3333333333333333	-1	2
2 3.5	-1	2
3 0.3666666666666667	-1	2


Atoms

1	1	1	0.79110098	3.878	0.43000001	-0.41499999
2	1	2	-0.58319199	4.1739998	-0.037	-1.5470001
3	1	3	-0.459234	2.5969999	0.178	0.17
4	1	4	0.027228	1.59	-0.63599998	-0.51300001
5	1	4	-0.142368	0.287	-0.71600002	0.292
6	1	4	-0.142368	-0.47099999	0.62099999	0.294
7	1	4	0.027228	-1.757	0.54699999	1.126
8	1	3	-0.459234	-2.7090001	-0.403	0.551
9	1	1	0.79110098	-3.4660001	-0.123	-0.63
10	1	2	-0.58319199	-3.349	0.97899997	-1.228
11	1	5	0.332129	2.405	0.579	1.115
12	1	6	0.066844001	1.383	-0.211	-1.52
13	1	6	0.066844001	1.99	-1.664	-0.648
14	1	7	0.095973998	0.51300001	-1.03	1.335
15	1	7	0.095973998	-0.35699999	-1.498	-0.16599999
16	1	7	0.095973998	0.175	1.415	0.72600001
17	1	7	0.095973998	-0.71499997	0.91600001	-0.74900001
18	1	6	0.066844001	-2.2249999	1.554	1.184
19	1	6	0.066844001	-1.506	0.237	2.164
20	1	5	0.332129	-2.8870001	-1.302	1.053
21	1	8	-0.49625799	-4.1259999	-0.83399999	-0.99699998
22	1	4	0.116102	-3.358	-1.974	-1.268
23	1	4	0.151328	-4.2459998	-3.0999999	-1.8049999
24	1	3	-0.66292602	-5.303	-3.473	-0.84799999
25	1	1	0.26811799	-6.6960001	-3.2839999	-1.198
26	1	1	-0.440016	-7.1279998	-2.0780001	-1.784
27	1	1	-0.139016	-8.4729996	-1.89	-2.115
28	1	1	-0.28376901	-9.4040003	-2.9000001	-1.867
29	1	1	-0.139016	-8.9899998	-4.1020002	-1.291
30	1	1	-0.440016	-7.6459999	-4.2969999	-0.95899999
31	1	4	0.151328	-4.927	-4.1589999	0.40200001
32	1	4	0.116102	-5.4349999	-3.4000001	1.6289999
33	1	8	-0.49625799	-4.8839998	-2.1140001	1.661
34	1	6	0.092413999	-2.5899999	-1.73	-2.0350001
35	1	6	0.092413999	-2.832	-2.3039999	-0.34599999
36	1	6	0.080078997	-4.6830001	-2.7880001	-2.7780001
37	1	6	0.080078997	-3.6140001	-3.99	-2.0139999
38	1	9	0.20715199	-6.4299998	-1.277	-1.979
39	1	9	0.211483	-8.7939997	-0.958	-2.5610001
40	1	9	0.208933	-10.445	-2.7520001	-2.1240001
41	1	9	0.211483	-9.7119999	-4.888	-1.105
42	1	9	0.20715199	-7.355	-5.2449999	-0.53100002
43	1	6	0.080078997	-3.823	-4.2620001	0.479
44	1	6	0.080078997	-5.3299999	-5.1919999	0.40900001
45	1	6	0.092413999	-6.5450001	-3.3380001	1.604
46	1	6	0.092413999	-5.1350002	-3.957	2.5450001
47	1	1	0.79110098	-5.276	-1.654	2.5039999
48	1	2	-0.58319199	-5.9310002	-2.3380001	3.335
49	1	3	-0.459234	-5.0669999	-0.25400001	2.71
50	1	4	0.027228	-5.5929999	0.43399999	3.8900001
51	1	4	-0.142368	-5.2800002	1.9349999	3.8559999
52	1	4	-0.142368	-6.1040001	2.668	2.7850001
53	1	4	0.027228	-5.7670002	4.164	2.73
54	1	3	-0.459234	-6.1240001	4.835	3.98
55	1	1	0.79110098	-7.4770002	5.1329999	4.3410001
56	1	2	-0.58319199	-8.4320002	4.8330002	3.5769999
57	1	5	0.332129	-4.507	0.26499999	1.997
58	1	6	0.066844001	-6.6919999	0.28	3.9549999
59	1	6	0.066844001	-5.1279998	-0.0070000002	4.7989998
60	1	7	0.095973998	-4.1939998	2.0840001	3.6719999
61	1	7	0.095973998	-5.5190001	2.362	4.8540001
62	1	7	0.095973998	-5.8920002	2.23	1.786
63	1	7	0.095973998	-7.1880002	2.5350001	2.9879999
64	1	6	0.066844001	-6.3080001	4.6399999	1.8839999
65	1	6	0.066844001	-4.678	4.289	2.5420001
66	1	5	0.332129	-5.3590002	5.1630001	4.6110001
67	1	8	-0.49625799	-7.6750002	5.6090002	5.2410002
68	1	4	0.116102	-7.1620002	4.7750001	6.2420001
69	1	4	0.151328	-7.3889999	5.3969998	7.6230001
70	1	3	-0.66292602	-6.7449999	6.7160001	7.7470002
71	1	1	0.26811799	-7.552	7.9000001	7.9580002
72	1	1	-0.440016	-8.7130003	8.1190004	7.1900001
73	1	1	-0.139016	-9.4890003	9.2650003	7.3850002
74	1	1	-0.28376901	-9.1210003	10.205	8.349
75	1	1	-0.139016	-7.9759998	10	9.1210003
76	1	1	-0.440016	-7.1960001	8.8559999	8.9300003
77	1	4	0.151328	-5.2729998	6.7919998	7.7870002
78	1	4	0.116102	-4.7309999	7.7129998	6.6919999
79	1	8	-0.49625799	-5.1030002	7.2309999	5.4320002
80	1	6	0.092413999	-7.6789999	3.7909999	6.2059999
81	1	6	0.092413999	-6.0770001	4.6020002	6.072
82	1	6	0.080078997	-8.4820004	5.4689999	7.8150001
83	1	6	0.080078997	-6.9770002	4.7160001	8.3990002
84	1	9	0.20715199	-9.0159998	7.4120002	6.4320002
85	1	9	0.211483	-10.376	9.4250002	6.7870002
86	1	9	0.208933	-9.7229996	11.092	8.4989996
87	1	9	0.211483	-7.6950002	10.727	9.8730001
88	1	9	0.20715199	-6.3270001	8.717	9.5570002
89	1	6	0.080078997	-4.822	5.7839999	7.6599998
90	1	6	0.080078997	-4.934	7.1529999	8.7790003
91	1	6	0.092413999	-5.1220002	8.7440004	6.8369999
92	1	6	0.092413999	-3.6210001	7.744	6.7670002
93	1	1	0.79110098	-4.7179999	7.9029999	4.7420001
94	1	2	-0.58319199	-3.918	8.7959995	5.1279998
95	1	3	-0.459234	-5.099	7.8049998	3.3670001
96	1	4	0.027228	-4.572	8.724	2.358
97	1	4	-0.142368	-5.1680002	8.4460001	0.972
98	1	4	-0.142368	-6.6479998	8.8529997	0.89300001
99	1	4	0.027228	-7.2519999	8.5459995	-0.484
100	1	3	-0.459234	-6.6059999	9.3310003	-1.535
101	1	1	0.79110098	-6.8509998	10.73	-1.719
102	1	2	-0.58319199	-7.6570001	11.349	-0.97500002
103	1	5	0.332129	-5.757	7.039	3.0969999
104	1	6	0.066844001	-4.7870002	9.7729998	2.6559999
105	1	6	0.066844001	-3.4679999	8.6009998	2.302
106	1	7	0.095973998	-5.0539999	7.3670001	0.72799999
107	1	7	0.095973998	-4.5900002	9.0290003	0.223
108	1	7	0.095973998	-7.2309999	8.2959995	1.658
109	1	7	0.095973998	-6.7519999	9.9370003	1.114
110	1	6	0.066844001	-8.342	8.7620001	-0.472
111	1	6	0.066844001	-7.1300001	7.4629998	-0.704
112	1	5	0.332129	-5.9840002	8.8439999	-2.217
113	1	8	-0.49625799	-6.3639998	11.24	-2.4790001
114	1	4	0.116102	-4.9949999	11.097	-2.2279999
115	1	4	0.151328	-4.177	11.807	-3.3110001
116	1	3	-0.66292602	-4.4569998	11.271	-4.6539998
117	1	1	0.26811799	-5.052	12.122	-5.664
118	1	1	-0.440016	-6.1529999	12.942	-5.349
119	1	1	-0.139016	-6.7350001	13.757	-6.3239999
120	1	1	-0.28376901	-6.2259998	13.769	-7.6240001
121	1	1	-0.139016	-5.131	12.966	-7.9499998
122	1	1	-0.440016	-4.546	12.148	-6.9790001
123	1	4	0.151328	-4.0029998	9.9090004	-4.9899998
124	1	4	0.116102	-5.165	9.033	-5.461
125	1	8	-0.49625799	-6.1290002	8.9289999	-4.4499998
126	1	6	0.092413999	-4.7490001	11.551	-1.242
127	1	6	0.092413999	-4.7259998	10.019	-2.188
128	1	6	0.080078997	-4.3839998	12.899	-3.267
129	1	6	0.080078997	-3.095	11.682	-3.0880001
130	1	9	0.20715199	-6.572	12.946	-4.3540001
131	1	9	0.211483	-7.5830002	14.38	-6.072
132	1	9	0.208933	-6.677	14.401	-8.3769999
133	1	9	0.211483	-4.7329998	12.979	-8.9569998
134	1	9	0.20715199	-3.6889999	11.552	-7.2589998
135	1	6	0.080078997	-3.5250001	9.4239998	-4.1110001
136	1	6	0.080078997	-3.223	9.9469995	-5.777
137	1	6	0.092413999	-5.6209998	9.4680004	-6.3779998
138	1	6	0.092413999	-4.7740002	8.0209999	-5.7090001
139	1	1	0.79110098	-6.888	8.3380003	-4.8369999
140	1	2	-0.58319199	-6.7119999	7.7410002	-5.9320002
141	1	3	-0.459234	-8.1199999	8.2089996	-4.1220002
142	1	4	0.027228	-9.2139997	7.3769999	-4.625
143	1	4	-0.142368	-10.442	7.4429998	-3.707
144	1	4	-0.142368	-11.145	8.8070002	-3.7880001
145	1	4	0.027228	-12.354	8.882	-2.846
146	1	3	-0.459234	-13.388	7.9219999	-3.2320001
147	1	1	0.79110098	-14.237	8.1110001	-4.368
148	1	2	-0.58319199	-14.133	9.1379995	-5.0910001
149	1	5	0.332129	-8.2110004	8.7159996	-3.2130001
150	1	6	0.066844001	-9.493	7.7020001	-5.6500001
151	1	6	0.066844001	-8.8660002	6.322	-4.6799998
152	1	7	0.095973998	-10.135	7.23	-2.6600001
153	1	7	0.095973998	-11.153	6.6479998	-4.0219998
154	1	7	0.095973998	-10.434	9.6110001	-3.5009999
155	1	7	0.095973998	-11.471	9.0010004	-4.8319998
156	1	6	0.066844001	-12.777	9.9099998	-2.859
157	1	6	0.066844001	-12.024	8.6709995	-1.806
158	1	5	0.332129	-13.555	7.0910001	-2.622
159	1	8	-0.49625799	-14.953	7.3969998	-4.599
160	1	4	0.116102	-14.257	6.2010002	-4.8070002
161	1	4	0.151328	-15.231	5.0669999	-5.1409998
162	1	3	-0.66292602	-16.211	4.8470001	-4.0640001
163	1	1	0.26811799	-17.621	5.0640001	-4.3130002
164	1	1	-0.440016	-18.058001	6.2199998	-4.9879999
165	1	1	-0.139016	-19.419001	6.4359999	-5.2220001
166	1	1	-0.28376901	-20.362	5.5019999	-4.7880001
167	1	1	-0.139016	-19.944	4.349	-4.1220002
168	1	1	-0.440016	-18.584	4.1279998	-3.885
169	1	4	0.151328	-15.751	4.2800002	-2.783
170	1	4	0.116102	-16.118999	5.1859999	-1.607
171	1	8	-0.49625799	-15.519	6.4419999	-1.762
172	1	6	0.092413999	-13.551	6.3260002	-5.6589999
173	1	6	0.092413999	-13.663	5.9450002	-3.902
174	1	6	0.080078997	-15.74	5.296	-6.1020002
175	1	6	0.080078997	-14.654	4.131	-5.3049998
176	1	9	0.20715199	-17.351	6.9629998	-5.3270001
177	1	9	0.211483	-19.743999	7.3299999	-5.7389998
178	1	9	0.208933	-21.415001	5.671	-4.9710002
179	1	9	0.211483	-20.674999	3.622	-3.7909999
180	1	9	0.20715199	-18.292	3.217	-3.3829999
181	1	6	0.080078997	-14.649	4.1339998	-2.7880001
182	1	6	0.080078997	-16.191	3.2739999	-2.6289999
183	1	6	0.092413999	-17.224001	5.2979999	-1.544
184	1	6	0.092413999	-15.759	4.7160001	-0.66500002
185	1	1	0.79110098	-15.817	7.006	-0.94400001
186	1	2	-0.58319199	-16.421	6.4450002	0.0089999996
187	1	3	-0.459234	-15.538	8.408	-0.91000003
188	1	4	0.027228	-15.93	9.2399998	0.228
189	1	4	-0.142368	-15.565	10.714	0.0040000002
190	1	4	-0.142368	-16.452999	11.368	-1.067
191	1	4	0.027228	-16.066	12.832	-1.312
192	1	3	-0.459234	-16.285	13.647	-0.118
193	1	1	0.79110098	-17.587999	14.045	0.322
194	1	2	-0.58319199	-18.618	13.711	-0.322
195	1	5	0.332129	-15.024	8.823	-1.721
196	1	6	0.066844001	-17.024	9.1470003	0.403
197	1	6	0.066844001	-15.403	8.8769999	1.137
198	1	7	0.095973998	-14.494	10.791	-0.28600001
199	1	7	0.095973998	-15.698	11.254	0.96600002
200	1	7	0.095973998	-16.348	10.817	-2.026
201	1	7	0.095973998	-17.518999	11.308	-0.759
202	1	6	0.066844001	-16.662001	13.241	-2.1570001
203	1	6	0.066844001	-14.995	12.885	-1.605
204	1	5	0.332129	-15.455	14.003	0.40700001
205	1	8	-0.49625799	-17.686001	14.621	1.178
206	1	4	0.116102	-17.118	13.875	2.217
207	1	4	0.151328	-17.198	14.648	3.5369999
208	1	3	-0.66292602	-16.496	15.941	3.461
209	1	1	0.26811799	-17.236	17.177	3.609
210	1	1	-0.440016	-18.451	17.368999	2.9230001
211	1	1	-0.139016	-19.163	18.563999	3.0569999
212	1	1	-0.28376901	-18.674999	19.582001	3.878
213	1	1	-0.139016	-17.475	19.406	4.5679998
214	1	1	-0.440016	-16.757999	18.212	4.4380002
215	1	4	0.151328	-15.024	15.951	3.368
216	1	4	0.116102	-14.548	16.725	2.1370001
217	1	8	-0.49625799	-15.049	16.132	0.972
218	1	6	0.092413999	-17.673	12.917	2.332
219	1	6	0.092413999	-16.059999	13.633	1.976
220	1	6	0.080078997	-18.266001	14.791	3.8110001
221	1	6	0.080078997	-16.743999	14.034	4.3439999
222	1	9	0.20715199	-18.847	16.601	2.2750001
223	1	9	0.211483	-20.094	18.702	2.5220001
224	1	9	0.208933	-19.228001	20.507	3.9809999
225	1	9	0.211483	-17.1	20.193001	5.2090001
226	1	9	0.20715199	-15.843	18.099001	5
227	1	6	0.080078997	-14.625	14.915	3.313
228	1	6	0.080078997	-14.585	16.399	4.2820001
229	1	6	0.092413999	-14.885	17.784	2.201
230	1	6	0.092413999	-13.436	16.712	2.1129999
231	1	1	0.79110098	-14.701	16.708	0.183
232	1	2	-0.58319199	-13.837	17.599001	0.40000001
233	1	3	-0.459234	-15.207	16.483999	-1.135
234	1	4	0.027228	-14.738	17.266001	-2.279
235	1	4	-0.142368	-15.466	16.872	-3.5710001
236	1	4	-0.142368	-16.931	17.337999	-3.569
237	1	4	0.027228	-17.665001	16.916	-4.848
238	1	3	-0.459234	-17.087	17.555	-6.0289998
239	1	1	0.79110098	-17.295	18.936001	-6.3429999
240	1	2	-0.58319199	-18.007	19.667999	-5.605
241	1	5	0.332129	-15.915	15.726	-1.263
242	1	6	0.066844001	-14.886	18.35	-2.0799999
243	1	6	0.066844001	-13.649	17.087	-2.415
244	1	7	0.095973998	-15.414	15.769	-3.7049999
245	1	7	0.095973998	-14.935	17.344999	-4.4260001
246	1	7	0.095973998	-17.462999	16.892	-2.701
247	1	7	0.095973998	-16.973	18.443001	-3.4590001
248	1	6	0.066844001	-18.740999	17.183001	-4.7680001
249	1	6	0.066844001	-17.605	15.811	-4.9580002
250	1	5	0.332129	-16.547001	16.969	-6.704
251	1	8	-0.49625799	-16.858999	19.34	-7.1929998
252	1	4	0.116102	-15.478	19.160999	-7.0450001
253	1	4	0.151328	-14.734	19.712999	-8.2639999
254	1	3	-0.66292602	-15.153	19.052	-9.5120001
255	1	1	0.26811799	-15.803	19.82	-10.554
256	1	1	-0.440016	-16.84	20.719	-10.239
257	1	1	-0.139016	-17.476	21.452999	-11.244
258	1	1	-0.28376901	-17.084	21.304001	-12.575
259	1	1	-0.139016	-16.055	20.42	-12.904
260	1	1	-0.440016	-15.416	19.681999	-11.903
261	1	4	0.151328	-14.782	17.643	-9.7340002
262	1	4	0.116102	-16.014	16.778	-10.007
263	1	8	-0.49625799	-16.886999	16.826	-8.9130001
264	1	6	0.092413999	-15.129	19.704	-6.138
265	1	6	0.092413999	-15.248	18.080999	-6.9099998
266	1	6	0.080078997	-14.895	20.812	-8.3219995
267	1	6	0.080078997	-13.642	19.562	-8.1199999
268	1	9	0.20715199	-17.169001	20.848	-9.2180004
269	1	9	0.211483	-18.274	22.139	-10.99
270	1	9	0.208933	-17.577	21.874001	-13.352
271	1	9	0.211483	-15.748	20.309	-13.936
272	1	9	0.20715199	-14.61	19.021	-12.187
273	1	6	0.080078997	-14.247	17.231001	-8.8509998
274	1	6	0.080078997	-14.075	17.561001	-10.584
275	1	6	0.092413999	-16.533001	17.134001	-10.924
276	1	6	0.092413999	-15.686	15.728	-10.175
277	1	1	0.79110098	-17.698999	16.233999	-9.1669998
278	1	2	-0.58319199	-17.643999	15.517	-10.202
279	1	3	-0.459234	-18.867001	16.239	-8.3409996
280	1	4	0.027228	-20.032	15.411	-8.6549997
281	1	4	-0.142368	-21.17	15.631	-7.6500001
282	1	4	-0.142368	-21.826	17.011	-7.8189998
283	1	4	0.027228	-22.941999	17.240999	-6.7930002
284	1	3	-0.459234	-24.042	16.296	-6.9819999
285	1	1	0.79110098	-24.981001	16.403999	-8.0570002
286	1	2	-0.58319199	-24.903	17.343	-8.8929996
287	1	5	0.332129	-18.858	16.843	-7.4879999
288	1	6	0.066844001	-20.389	15.64	-9.6829996
289	1	6	0.066844001	-19.731001	14.341	-8.625
290	1	7	0.095973998	-20.778999	15.516	-6.6149998
291	1	7	0.095973998	-21.934999	14.841	-7.8150001
292	1	7	0.095973998	-21.062	17.806	-7.6830001
293	1	7	0.095973998	-22.235001	17.108999	-8.8470001
294	1	6	0.066844001	-23.325001	18.281	-6.882
295	1	6	0.066844001	-22.528	17.125999	-5.7670002
296	1	5	0.332129	-24.184999	15.542	-6.2729998
297	1	8	-0.49625799	-25.740999	15.704	-8.1459999
298	1	4	0.116102	-25.111	14.461	-8.2810001
299	1	4	0.151328	-26.153	13.345	-8.4060001
300	1	3	-0.66292602	-27.041	13.287	-7.2319999
301	1	1	0.26811799	-28.459	13.542	-7.3829999
302	1	1	-0.440016	-28.910999	14.639	-8.1409998
303	1	1	-0.139016	-30.278	14.893	-8.2810001
304	1	1	-0.28376901	-31.212	14.056	-7.6700001
305	1	1	-0.139016	-30.781	12.961	-6.9190001
306	1	1	-0.440016	-29.414	12.702	-6.7750001
307	1	4	0.151328	-26.49	12.836	-5.9400001
308	1	4	0.116102	-26.716999	13.878	-4.8429999
309	1	8	-0.49625799	-26.087	15.08	-5.184
310	1	6	0.092413999	-24.481001	14.463	-9.198
311	1	6	0.092413999	-24.450001	14.274	-7.408
312	1	6	0.080078997	-26.738001	13.495	-9.3400002
313	1	6	0.080078997	-25.629	12.371	-8.5150003
314	1	9	0.20715199	-28.209	15.308	-8.618
315	1	9	0.211483	-30.613001	15.742	-8.8629999
316	1	9	0.208933	-32.271	14.254	-7.7800002
317	1	9	0.211483	-31.506001	12.309	-6.4499998
318	1	9	0.20715199	-29.113001	11.836	-6.204
319	1	6	0.080078997	-25.4	12.639	-6.0229998
320	1	6	0.080078997	-26.952	11.874	-5.6409998
321	1	6	0.092413999	-27.808001	14.047	-4.6999998
322	1	6	0.092413999	-26.294001	13.492	-3.8889999
323	1	1	0.79110098	-26.289	15.741	-4.4109998
324	1	2	-0.58319199	-26.826	15.312	-3.355
325	1	3	-0.459234	-25.955999	17.124001	-4.5539999
326	1	4	0.027228	-26.212999	18.089001	-3.484
327	1	4	-0.142368	-25.815001	19.511999	-3.898
328	1	4	-0.142368	-26.768999	20.091	-4.954
329	1	4	0.027228	-26.351	21.500999	-5.3899999
330	1	3	-0.459234	-26.431	22.447001	-4.277
331	1	1	0.79110098	-27.674	22.948999	-3.7739999
332	1	2	-0.58319199	-28.768999	22.599001	-4.2880001
333	1	5	0.332129	-25.500999	17.426001	-5.4450002
334	1	6	0.066844001	-27.290001	18.066	-3.2079999
335	1	6	0.066844001	-25.621	17.799	-2.589
336	1	7	0.095973998	-24.771999	19.507999	-4.2839999
337	1	7	0.095973998	-25.84	20.156	-2.9920001
338	1	7	0.095973998	-26.771	19.438	-5.8530002
339	1	7	0.095973998	-27.805	20.114	-4.552
340	1	6	0.066844001	-27.004	21.846001	-6.2199998
341	1	6	0.066844001	-25.309	21.472	-5.776
342	1	5	0.332129	-25.545	22.816	-3.8659999
343	1	8	-0.49625799	-27.674	23.617001	-2.9809999
344	1	4	0.116102	-27.044001	22.958	-1.919
345	1	4	0.151328	-26.976	23.868999	-0.68900001
346	1	3	-0.66292602	-26.235001	25.112	-0.96499997
347	1	1	0.26811799	-26.913	26.389999	-0.88999999
348	1	1	-0.440016	-28.176001	26.566	-1.487
349	1	1	-0.139016	-28.827	27.801001	-1.425
350	1	1	-0.28376901	-28.23	28.875	-0.764
351	1	1	-0.139016	-26.981001	28.716	-0.162
352	1	1	-0.440016	-26.323999	27.483	-0.222
353	1	4	0.151328	-24.778999	25.042999	-1.183
354	1	4	0.116102	-24.385	25.66	-2.526
355	1	8	-0.49625799	-25.01	24.971001	-3.572
356	1	6	0.092413999	-27.622	22.045	-1.653
357	1	6	0.092413999	-26.021	22.643	-2.22
358	1	6	0.080078997	-28.009001	24.09	-0.34200001
359	1	6	0.080078997	-26.476	23.323	0.139
360	1	9	0.20715199	-28.657	25.753	-2.0120001
361	1	9	0.211483	-29.796	27.924999	-1.891
362	1	9	0.208933	-28.737	29.830999	-0.71600002
363	1	9	0.211483	-26.521	29.549	0.35499999
364	1	9	0.20715199	-25.367001	27.386999	0.26899999
365	1	6	0.080078997	-24.424999	23.99	-1.1569999
366	1	6	0.080078997	-24.243	25.563999	-0.36300001
367	1	6	0.092413999	-24.674999	26.733999	-2.55
368	1	6	0.092413999	-23.281	25.591999	-2.642
369	1	8	-0.49625799	4.5430002	0.97899997	0.075999998
370	1	4	0.116102	4.507	2.2490001	-0.51099998
371	1	4	0.15246201	5.4949999	3.1889999	0.18799999
372	1	3	-0.65477902	5.1939998	3.335	1.622
373	1	1	0.26982	6.1500001	2.8829999	2.612
374	1	1	-0.440016	6.7690001	1.625	2.4849999
375	1	1	-0.139016	7.6849999	1.182	3.444
376	1	1	-0.28376901	7.9970002	1.989	4.54
377	1	1	-0.139016	7.3959999	3.2409999	4.677
378	1	1	-0.440016	6.4790001	3.688	3.721
379	1	4	0.122079	3.9779999	4.0650001	2.027
380	1	4	0.083476	3.085	3.2060001	2.924
381	1	10	-0.67489302	2.6860001	2.0510001	2.24
382	1	6	0.092413999	4.7909999	2.1700001	-1.584
383	1	6	0.092413999	3.477	2.664	-0.45699999
384	1	6	0.080078997	6.5289998	2.8099999	0.034000002
385	1	6	0.080078997	5.4489999	4.1869998	-0.29800001
386	1	9	0.20715199	6.539	0.977	1.652
387	1	9	0.211483	8.1520004	0.211	3.3380001
388	1	9	0.208933	8.7069998	1.6440001	5.2810001
389	1	9	0.211483	7.6430001	3.868	5.5240002
390	1	9	0.20715199	6.0450001	4.6700001	3.8469999
391	1	6	0.085096002	3.392	4.3800001	1.137
392	1	6	0.085096002	4.25	4.9990001	2.559
393	1	6	0.091064997	3.632	2.9289999	3.852
394	1	6	0.091064997	2.187	3.7980001	3.2090001
395	1	11	0.39472401	2.1240001	1.535	2.875
396	1	1	0.79110098	-24.700001	25.465	-4.4840002
397	1	2	-0.58319199	-23.921	26.452999	-4.4190001
398	1	3	-0.459234	-25.177999	24.99	-5.7449999
399	1	4	0.027532	-24.788	25.628	-7.0019999
400	1	4	-0.137228	-25.433001	24.914	-8.198
401	1	4	-0.120596	-24.938	25.452999	-9.552
402	1	4	0.187253	-25.421	26.875	-9.8669996
403	1	3	-0.60427302	-26.879999	26.923	-9.9130001
404	1	12	0.59563702	-27.51	27.268999	-10.962
405	1	2	-0.422768	-28.124001	27.605	-11.983
406	1	5	0.332129	-25.825001	24.169001	-5.7459998
407	1	6	0.066844001	-25.110001	26.690001	-6.9780002
408	1	6	0.066844001	-23.681	25.59	-7.0999999
409	1	7	0.094967999	-26.540001	24.995001	-8.132
410	1	7	0.094967999	-25.174	23.834	-8.1459999
411	1	7	0.089822002	-23.827	25.431999	-9.5769997
412	1	7	0.089822002	-25.297001	24.774	-10.356
413	1	6	0.040061001	-25.055	27.589001	-9.1020002
414	1	6	0.040061001	-24.983999	27.188	-10.843

Bonds

1	1	1	2
2	2	1	3
3	3	1	369
4	4	3	4
5	5	3	11
6	6	4	5
7	7	4	12
8	7	4	13
9	6	5	6
10	7	5	14
11	7	5	15
12	6	6	7
13	7	6	16
14	7	6	17
15	4	7	8
16	7	7	18
17	7	7	19
18	2	8	9
19	5	8	20
20	1	9	10
21	3	9	21
22	8	21	22
23	6	22	23
24	7	22	34
25	7	22	35
26	9	23	24
27	7	23	36
28	7	23	37
29	10	24	25
30	9	24	31
31	11	25	26
32	11	25	30
33	11	26	27
34	12	26	38
35	11	27	28
36	12	27	39
37	11	28	29
38	12	28	40
39	11	29	30
40	12	29	41
41	12	30	42
42	6	31	32
43	7	31	43
44	7	31	44
45	8	32	33
46	7	32	45
47	7	32	46
48	3	33	47
49	1	47	48
50	2	47	49
51	4	49	50
52	5	49	57
53	6	50	51
54	7	50	58
55	7	50	59
56	6	51	52
57	7	51	60
58	7	51	61
59	6	52	53
60	7	52	62
61	7	52	63
62	4	53	54
63	7	53	64
64	7	53	65
65	2	54	55
66	5	54	66
67	1	55	56
68	3	55	67
69	8	67	68
70	6	68	69
71	7	68	80
72	7	68	81
73	9	69	70
74	7	69	82
75	7	69	83
76	10	70	71
77	9	70	77
78	11	71	72
79	11	71	76
80	11	72	73
81	12	72	84
82	11	73	74
83	12	73	85
84	11	74	75
85	12	74	86
86	11	75	76
87	12	75	87
88	12	76	88
89	6	77	78
90	7	77	89
91	7	77	90
92	8	78	79
93	7	78	91
94	7	78	92
95	3	79	93
96	1	93	94
97	2	93	95
98	4	95	96
99	5	95	103
100	6	96	97
101	7	96	104
102	7	96	105
103	6	97	98
104	7	97	106
105	7	97	107
106	6	98	99
107	7	98	108
108	7	98	109
109	4	99	100
110	7	99	110
111	7	99	111
112	2	100	101
113	5	100	112
114	1	101	102
115	3	101	113
116	8	113	114
117	6	114	115
118	7	114	126
119	7	114	127
120	9	115	116
121	7	115	128
122	7	115	129
123	10	116	117
124	9	116	123
125	11	117	118
126	11	117	122
127	11	118	119
128	12	118	130
129	11	119	120
130	12	119	131
131	11	120	121
132	12	120	132
133	11	121	122
134	12	121	133
135	12	122	134
136	6	123	124
137	7	123	135
138	7	123	136
139	8	124	125
140	7	124	137
141	7	124	138
142	3	125	139
143	1	139	140
144	2	139	141
145	4	141	142
146	5	141	149
147	6	142	143
148	7	142	150
149	7	142	151
150	6	143	144
151	7	143	152
152	7	143	153
153	6	144	145
154	7	144	154
155	7	144	155
156	4	145	146
157	7	145	156
158	7	145	157
159	2	146	147
160	5	146	158
161	1	147	148
162	3	147	159
163	8	159	160
164	6	160	161
165	7	160	172
166	7	160	173
167	9	161	162
168	7	161	174
169	7	161	175
170	10	162	163
171	9	162	169
172	11	163	164
173	11	163	168
174	11	164	165
175	12	164	176
176	11	165	166
177	12	165	177
178	11	166	167
179	12	166	178
180	11	167	168
181	12	167	179
182	12	168	180
183	6	169	170
184	7	169	181
185	7	169	182
186	8	170	171
187	7	170	183
188	7	170	184
189	3	171	185
190	1	185	186
191	2	185	187
192	4	187	188
193	5	187	195
194	6	188	189
195	7	188	196
196	7	188	197
197	6	189	190
198	7	189	198
199	7	189	199
200	6	190	191
201	7	190	200
202	7	190	201
203	4	191	192
204	7	191	202
205	7	191	203
206	2	192	193
207	5	192	204
208	1	193	194
209	3	193	205
210	8	205	206
211	6	206	207
212	7	206	218
213	7	206	219
214	9	207	208
215	7	207	220
216	7	207	221
217	10	208	209
218	9	208	215
219	11	209	210
220	11	209	214
221	11	210	211
222	12	210	222
223	11	211	212
224	12	211	223
225	11	212	213
226	12	212	224
227	11	213	214
228	12	213	225
229	12	214	226
230	6	215	216
231	7	215	227
232	7	215	228
233	8	216	217
234	7	216	229
235	7	216	230
236	3	217	231
237	1	231	232
238	2	231	233
239	4	233	234
240	5	233	241
241	6	234	235
242	7	234	242
243	7	234	243
244	6	235	236
245	7	235	244
246	7	235	245
247	6	236	237
248	7	236	246
249	7	236	247
250	4	237	238
251	7	237	248
252	7	237	249
253	2	238	239
254	5	238	250
255	1	239	240
256	3	239	251
257	8	251	252
258	6	252	253
259	7	252	264
260	7	252	265
261	9	253	254
262	7	253	266
263	7	253	267
264	10	254	255
265	9	254	261
266	11	255	256
267	11	255	260
268	11	256	257
269	12	256	268
270	11	257	258
271	12	257	269
272	11	258	259
273	12	258	270
274	11	259	260
275	12	259	271
276	12	260	272
277	6	261	262
278	7	261	273
279	7	261	274
280	8	262	263
281	7	262	275
282	7	262	276
283	3	263	277
284	1	277	278
285	2	277	279
286	4	279	280
287	5	279	287
288	6	280	281
289	7	280	288
290	7	280	289
291	6	281	282
292	7	281	290
293	7	281	291
294	6	282	283
295	7	282	292
296	7	282	293
297	4	283	284
298	7	283	294
299	7	283	295
300	2	284	285
301	5	284	296
302	1	285	286
303	3	285	297
304	8	297	298
305	6	298	299
306	7	298	310
307	7	298	311
308	9	299	300
309	7	299	312
310	7	299	313
311	10	300	301
312	9	300	307
313	11	301	302
314	11	301	306
315	11	302	303
316	12	302	314
317	11	303	304
318	12	303	315
319	11	304	305
320	12	304	316
321	11	305	306
322	12	305	317
323	12	306	318
324	6	307	308
325	7	307	319
326	7	307	320
327	8	308	309
328	7	308	321
329	7	308	322
330	3	309	323
331	1	323	324
332	2	323	325
333	4	325	326
334	5	325	333
335	6	326	327
336	7	326	334
337	7	326	335
338	6	327	328
339	7	327	336
340	7	327	337
341	6	328	329
342	7	328	338
343	7	328	339
344	4	329	330
345	7	329	340
346	7	329	341
347	2	330	331
348	5	330	342
349	1	331	332
350	3	331	343
351	8	343	344
352	6	344	345
353	7	344	356
354	7	344	357
355	9	345	346
356	7	345	358
357	7	345	359
358	10	346	347
359	9	346	353
360	11	347	348
361	11	347	352
362	11	348	349
363	12	348	360
364	11	349	350
365	12	349	361
366	11	350	351
367	12	350	362
368	11	351	352
369	12	351	363
370	12	352	364
371	6	353	354
372	7	353	365
373	7	353	366
374	8	354	355
375	7	354	367
376	7	354	368
377	3	355	396
378	8	369	370
379	6	370	371
380	7	370	382
381	7	370	383
382	9	371	372
383	7	371	384
384	7	371	385
385	10	372	373
386	9	372	379
387	11	373	374
388	11	373	378
389	11	374	375
390	12	374	386
391	11	375	376
392	12	375	387
393	11	376	377
394	12	376	388
395	11	377	378
396	12	377	389
397	12	378	390
398	6	379	380
399	7	379	391
400	7	379	392
401	13	380	381
402	7	380	393
403	7	380	394
404	14	381	395
405	1	396	397
406	2	396	398
407	4	398	399
408	5	398	406
409	6	399	400
410	7	399	407
411	7	399	408
412	6	400	401
413	7	400	409
414	7	400	410
415	6	401	402
416	7	401	411
417	7	401	412
418	9	402	403
419	7	402	413
420	7	402	414
421	15	403	404
422	1	404	405

Angles

1	6	170	169	181
2	8	350	349	361
3	6	52	53	65
4	8	71	72	84
5	8	74	75	87
6	1	69	70	77
7	7	156	145	157
8	6	283	282	293
9	7	106	97	107
10	6	398	399	400
11	4	210	211	212
12	6	235	236	246
13	6	21	22	34
14	4	117	122	121
15	1	139	141	142
16	6	262	261	273
17	6	355	354	367
18	6	7	6	17
19	6	372	371	385
20	1	7	8	9
21	2	396	398	406
22	6	254	261	273
23	8	121	122	134
24	7	367	354	368
25	6	97	96	104
26	8	351	352	364
27	6	51	52	53
28	4	54	55	56
29	8	29	28	40
30	7	80	68	81
31	7	218	206	219
32	6	281	280	288
33	6	344	345	358
34	6	381	380	393
35	6	190	191	192
36	6	5	4	13
37	6	263	262	276
38	6	159	160	161
39	4	8	9	21
40	1	163	162	169
41	6	403	402	414
42	7	365	353	366
43	6	400	401	402
44	4	24	25	26
45	4	27	28	29
46	6	115	114	126
47	6	205	206	219
48	8	347	348	360
49	3	124	125	139
50	4	125	139	141
51	6	251	252	264
52	6	6	7	8
53	4	100	101	102
54	4	347	348	349
55	4	350	351	352
56	7	338	328	339
57	6	98	97	106
58	7	202	191	203
59	2	93	95	103
60	6	371	370	383
61	6	33	32	45
62	8	117	122	134
63	6	326	327	328
64	6	4	5	15
65	6	399	400	401
66	7	393	380	394
67	8	29	30	42
68	8	377	376	388
69	6	123	124	138
70	1	396	398	399
71	6	252	253	266
72	6	236	237	238
73	6	24	23	36
74	4	284	285	297
75	8	75	74	86
76	8	214	213	225
77	6	327	326	334
78	4	372	373	374
79	5	2	1	369
80	5	79	93	94
81	7	82	69	83
82	4	25	30	29
83	4	73	74	75
84	6	328	329	341
85	6	161	160	172
86	4	324	323	325
87	3	331	343	344
88	6	300	299	313
89	6	95	96	105
90	6	141	142	150
91	5	194	193	205
92	2	331	330	342
93	6	345	344	357
94	6	237	236	247
95	8	350	351	363
96	6	189	190	200
97	5	10	9	21
98	4	71	76	75
99	7	18	7	19
100	1	93	95	96
101	8	377	378	390
102	1	345	346	353
103	6	50	51	61
104	7	310	298	311
105	8	75	76	88
106	9	402	403	404
107	6	284	283	294
108	6	380	379	391
109	6	281	282	283
110	6	346	353	354
111	6	53	52	62
112	4	301	306	305
113	6	353	354	368
114	4	397	396	398
115	6	330	329	341
116	3	1	369	370
117	4	70	71	72
118	7	174	161	175
119	8	118	119	131
120	6	70	77	89
121	6	70	69	83
122	6	162	169	182
123	7	60	51	61
124	1	191	192	193
125	4	118	117	122
126	5	56	55	67
127	6	8	7	18
128	6	403	402	413
129	6	141	142	143
130	7	196	188	197
131	8	209	210	222
132	4	28	29	30
133	6	31	32	33
134	8	119	118	130
135	8	301	302	314
136	2	323	325	333
137	8	71	76	88
138	1	117	116	123
139	7	384	371	385
140	6	23	22	35
141	6	52	53	64
142	6	187	188	197
143	6	283	282	292
144	6	114	115	116
145	6	32	31	43
146	4	330	331	343
147	6	7	6	16
148	6	372	371	384
149	6	327	328	329
150	4	330	331	332
151	4	210	209	214
152	8	168	167	179
153	6	354	353	365
154	6	190	191	202
155	6	217	216	230
156	5	286	285	297
157	6	329	328	338
158	6	113	114	127
159	6	116	123	124
160	8	164	165	177
161	6	5	4	12
162	2	277	279	287
163	6	68	69	82
164	6	97	98	99