Title

82 atoms
87 bonds
142 angles
213 dihedrals
114 impropers

9 atom types
13 bond types
6 angle types
8 dihedral types
2 improper types
-11.07499981 88.92500019 xlo xhi
-9.767999649 90.23200035 ylo yhi
-8.82199955 91.17800045 zlo zhi
0.0 0.0 0.0 xy xz yz

Masses

1	15.99943
2	12.01078
3	1.007947
4	12.01078
5	1.007947
6	15.99943
7	15.99943
8	1.007947
9	35.4532


Pair Coeffs

1	0.16846514	3.0251065
2	0.086879315	3.4806469
3	0.015611343	2.5725815
4	0.10884061	3.3795318
5	0.015779483	2.6445434
6	0.2102061	3.0398122
7	0.20947353	2.99716
8	1.2326e-05	0.53453923
9	0.2656001	3.3075278

Bond Coeffs

1 harmonic	425.69104206635	1.362945806494
2 harmonic	300.03137914615	1.451203938761
3 harmonic	360.7852444772	1.387193227181
4 harmonic	397.2545789619	1.085358495916
5 harmonic	289.73813263395	1.498646816465
6 harmonic	264.62148576755	1.52190126495
7 harmonic	301.15400723785	1.345741232799
8 harmonic	370.04670688625	1.093899492634
9 harmonic	582.698766451	1.225198386222
10 harmonic	279.1350963404	1.454628925034
11 harmonic	385.7604595587	1.369745182308
12 harmonic	543.5267831885	0.9716763312559
13 harmonic	218.0227703685	1.746066037062


Angle Coeffs

1 harmonic	57.8982893754	126.8062420451
2 harmonic	65.09061609600001	110.3538806181
3 harmonic	34.066775159195	129.1835929926
4 harmonic	53.20531626545	116.5475862634
5 harmonic	201.41175231035	127.4691416191
6 harmonic	48.776492647595	115.6030999533


Dihedral Coeffs

1 fourier 1	3.661930099076	2	180
2 fourier 1	1.532232714475	2	180
3 fourier 1	0.457973137376	1	0
4 fourier 1	0.02664938770063	3	0
5 fourier 1	0.1155372516788	3	0
6 fourier 1	2.779853741805	2	180
7 fourier 1	0.9974165607242	2	180
8 fourier 1	0.8283030590042	2	180


Improper Coeffs

1 0.3666666666666667	-1	2
2 3.5	-1	2


Atoms

1	1	1	-0.015698999	-0.037	-2.4200001	-4.9910002
2	1	2	0.28362501	0.13	-1.78	-3.7639999
3	1	2	-0.32219699	-0.57499999	-0.68400002	-3.4579999
4	1	3	0.23050199	-1.2920001	-0.27900001	-4.1599998
5	1	2	-0.12575801	-0.38600001	-0.016000001	-2.1530001
6	1	3	0.21243501	-1.012	0.83899999	-1.943
7	1	2	-0.22147	0.52600002	-0.47299999	-1.262
8	1	4	0.115173	0.71899998	0.168	0.133
9	1	2	-0.187627	0.16	1.61	0.164
10	1	2	-0.20423301	-1.021	1.921	0.75099999
11	1	3	0.214834	-1.624	1.178	1.253
12	1	2	-0.21896	-1.546	3.302	0.71799999
13	1	3	0.22388101	-2.4779999	3.5339999	1.216
14	1	2	-0.21216799	-0.87599999	4.2610002	0.072999999
15	1	3	0.22432999	-1.263	5.2709999	0.046
16	1	2	-0.21896	0.384	3.938	-0.61900002
17	1	3	0.22388101	0.90799999	4.711	-1.166
18	1	2	-0.20423301	0.87	2.6919999	-0.58499998
19	1	3	0.214834	1.78	2.4779999	-1.128
20	1	2	-0.22147	0.071999997	-0.70200002	1.237
21	1	2	-0.12825499	-0.89099997	-1.618	0.97299999
22	1	3	0.21243501	-1.239	-1.806	-0.033
23	1	2	-0.27700099	-1.5190001	-2.3959999	2.059
24	1	3	0.230198	-2.266	-3.142	1.817
25	1	2	0.443611	-1.174	-2.1800001	3.332
26	1	1	-0.438712	-1.773	-2.9200001	4.348
27	1	2	-0.27700099	-0.164	-1.151	3.651
28	1	3	0.230198	0.097000003	-0.95300001	4.6820002
29	1	2	-0.12825499	0.41600001	-0.44999999	2.6700001
30	1	3	0.21243501	1.128	0.31900001	2.937
31	1	4	-0.14876699	2.2479999	0.242	0.41800001
32	1	5	0.087503999	2.4809999	0.99400002	1.2029999
33	1	5	0.087503999	2.6459999	-0.73500001	0.76700002
34	1	5	0.087503999	2.819	0.52600002	-0.49200001
35	1	2	-0.12575801	1.275	-1.719	-1.61
36	1	3	0.21243501	1.964	-2.161	-0.90399998
37	1	2	-0.32219699	1.092	-2.325	-2.789
38	1	3	0.23050199	1.642	-3.227	-3.0239999
39	1	2	0.629646	-1.52	-2.766	5.3540001
40	1	6	-0.48727	-0.373	-2.9449999	5.7280002
41	1	1	-0.015698999	-0.69	-2.0769999	-5.6869998
42	1	2	0.28362501	-1.904	-2.717	-5.9320002
43	1	2	-0.32219699	-2.2550001	-3.813	-5.2480001
44	1	3	0.23050199	-1.599	-4.2179999	-4.487
45	1	2	-0.12575801	-3.5450001	-4.4809999	-5.5180001
46	1	3	0.21243501	-3.7939999	-5.336	-4.9070001
47	1	2	-0.22147	-4.3769999	-4.0240002	-6.4850001
48	1	4	0.115173	-5.757	-4.665	-6.7649999
49	1	2	-0.187627	-5.822	-6.1069999	-6.2090001
50	1	2	-0.20423301	-6.4840002	-6.4180002	-5.0679998
51	1	3	0.214834	-7.0229998	-5.6750002	-4.4980001
52	1	2	-0.21896	-6.4840002	-7.7989998	-4.5419998
53	1	3	0.22388101	-7.039	-8.0310001	-3.6429999
54	1	2	-0.21216799	-5.7969999	-8.7580004	-5.1700001
55	1	3	0.22432999	-5.7950001	-9.7679996	-4.7820001
56	1	2	-0.21896	-5.0279999	-8.4350004	-6.3829999
57	1	3	0.22388101	-4.448	-9.2080002	-6.8720002
58	1	2	-0.20423301	-5.0300002	-7.1890001	-6.8709998
59	1	3	0.214834	-4.4310002	-6.9749999	-7.7449999
60	1	2	-0.22147	-6.9000001	-3.796	-6.1890001
61	1	2	-0.074047998	-6.6960001	-2.8789999	-5.2119999
62	1	3	0.21243501	-5.7150002	-2.691	-4.8010001
63	1	2	-0.41608399	-7.8210001	-2.1010001	-4.6529999
64	1	3	0.23597901	-7.6259999	-1.355	-3.8929999
65	1	2	0.43849099	-9.0690002	-2.3169999	-5.0780001
66	1	7	-0.64679098	-10.121	-1.577	-4.5450001
67	1	8	0.43858001	-11.075	-1.726	-4.8499999
68	1	2	-0.41608399	-9.323	-3.346	-6.1059999
69	1	3	0.23597901	-10.336	-3.5439999	-6.4330001
70	1	2	-0.074047998	-8.3070002	-4.0469999	-6.6240001
71	1	3	0.21243501	-8.5290003	-4.816	-7.3509998
72	1	4	-0.14876699	-5.9439998	-4.7389998	-8.3100004
73	1	5	0.087503999	-6.7129998	-5.4910002	-8.5909996
74	1	5	0.087503999	-6.2670002	-3.7620001	-8.7290001
75	1	5	0.087503999	-5	-5.0229998	-8.8219995
76	1	2	-0.12575801	-3.9820001	-2.7780001	-7.21
77	1	3	0.21243501	-4.6430001	-2.336	-7.9419999
78	1	2	-0.32219699	-2.8169999	-2.1719999	-6.9530001
79	1	3	0.23050199	-2.5480001	-1.27	-7.487
80	1	2	0.46869299	-2.2780001	-2.447	6.0609999
81	1	6	-0.55945802	-3.402	-2.1830001	5.6719999
82	1	9	-0.077004001	-1.885	-2.312	7.7649999

Bonds

1	1	1	2
2	2	1	41
3	3	2	3
4	3	2	37
5	4	3	4
6	3	3	5
7	4	5	6
8	3	5	7
9	5	7	8
10	3	7	35
11	5	8	9
12	5	8	20
13	6	8	31
14	3	9	10
15	3	9	18
16	4	10	11
17	3	10	12
18	4	12	13
19	3	12	14
20	4	14	15
21	3	14	16
22	4	16	17
23	3	16	18
24	4	18	19
25	3	20	21
26	3	20	29
27	4	21	22
28	3	21	23
29	4	23	24
30	3	23	25
31	1	25	26
32	3	25	27
33	7	26	39
34	4	27	28
35	3	27	29
36	4	29	30
37	8	31	32
38	8	31	33
39	8	31	34
40	4	35	36
41	3	35	37
42	4	37	38
43	9	39	40
44	10	39	80
45	1	41	42
46	3	42	43
47	3	42	78
48	4	43	44
49	3	43	45
50	4	45	46
51	3	45	47
52	5	47	48
53	3	47	76
54	5	48	49
55	5	48	60
56	6	48	72
57	3	49	50
58	3	49	58
59	4	50	51
60	3	50	52
61	4	52	53
62	3	52	54
63	4	54	55
64	3	54	56
65	4	56	57
66	3	56	58
67	4	58	59
68	3	60	61
69	3	60	70
70	4	61	62
71	3	61	63
72	4	63	64
73	3	63	65
74	11	65	66
75	3	65	68
76	12	66	67
77	4	68	69
78	3	68	70
79	4	70	71
80	8	72	73
81	8	72	74
82	8	72	75
83	4	76	77
84	3	76	78
85	4	78	79
86	9	80	81
87	13	80	82

Angles

1	1	47	76	78
2	3	11	10	12
3	1	2	37	35
4	3	68	70	71
5	4	8	31	34
6	3	36	35	37
7	4	48	72	73
8	1	23	25	27
9	1	26	39	80
10	3	27	29	30
11	3	51	50	52
12	1	1	2	37
13	1	5	7	8
14	2	2	1	41
15	3	13	12	14
16	4	48	72	74
17	1	49	58	56
18	6	32	31	33
19	1	54	56	58
20	3	2	37	38
21	3	46	45	47
22	3	20	21	22
23	4	47	48	60
24	3	53	52	54
25	3	15	14	16
26	2	25	26	39
27	1	48	60	61
28	2	65	66	67
29	6	32	31	34
30	4	47	48	72
31	1	20	21	23
32	1	8	9	10
33	1	43	45	47
34	1	61	60	70
35	1	1	2	3
36	3	61	63	64
37	3	57	56	58
38	2	1	41	42
39	3	52	54	55
40	3	35	37	38
41	6	74	72	75
42	3	4	3	5
43	1	8	9	18
44	1	50	52	54
45	3	2	3	4
46	1	8	20	21
47	1	50	49	58
48	1	3	2	37
49	1	12	14	16
50	1	10	12	14
51	1	63	65	66
52	1	3	5	7
53	3	20	29	30
54	3	25	27	28
55	3	56	58	59
56	4	7	8	9
57	1	61	63	65
58	4	7	8	31
59	1	52	54	56
60	4	47	48	49
61	1	10	9	18
62	1	66	65	68
63	1	2	3	5
64	1	48	60	70
65	1	7	35	37
66	3	10	12	13
67	4	48	72	75
68	3	22	21	23
69	3	64	63	65
70	1	8	7	35
71	3	49	50	51
72	1	26	25	27
73	1	8	20	29
74	1	43	42	78
75	3	62	61	63
76	1	81	80	82
77	3	76	78	79
78	1	20	29	27
79	3	14	16	17
80	3	28	27	29
81	4	9	8	31
82	1	45	47	48
83	4	8	31	32
84	3	9	10	11
85	3	60	70	71
86	6	73	72	74
87	3	21	23	24
88	1	48	47	76
89	3	42	78	79
90	1	14	16	18
91	3	47	76	77
92	3	65	68	69
93	1	5	7	35
94	1	48	49	50
95	4	7	8	20
96	4	8	31	33
97	1	45	47	76
98	4	20	8	31
99	1	23	25	26
100	1	9	10	12
101	6	33	31	34
102	3	42	43	44
103	1	21	23	25
104	3	9	18	19
105	1	25	27	29
106	4	49	48	60
107	1	65	68	70
108	1	60	70	68
109	3	6	5	7
110	3	77	76	78
111	3	44	43	45
112	1	21	20	29
113	3	24	23	25
114	1	42	78	76
115	3	60	61	62
116	1	40	39	80
117	1	48	49	58
118	3	7	35	36
119	1	42	43	45
120	3	55	54	56
121	4	49	48	72
122	1	63	65	68
123	4	9	8	20
124	1	49	50	52
125	3	17	16	18
126	5	26	39	40
127	3	69	68	70
128	1	39	80	81
129	3	43	45	46
130	1	41	42	78
131	1	9	18	16
132	1	60	61	63
133	4	60	48	72
134	3	49	58	59
135	3	50	52	53
136	1	39	80	82
137	3	12	14	15
138	3	54	56	57
139	1	41	42	43
140	6	73	72	75
141	3	3	5	6
142	3	16	18	19

Dihedrals

1	4	18	9	8	31
2	1	21	20	29	27
3	1	20	21	23	25
4	4	58	49	48	72
5	1	66	65	68	69
6	1	63	65	68	70
7	4	7	8	9	10
8	1	8	9	10	12
9	1	60	61	63	65
10	5	20	8	31	34
11	1	15	14	16	18
12	1	48	60	61	63
13	1	28	27	29	30
14	1	23	21	20	29
15	1	52	54	56	58
16	1	61	63	65	68
17	1	8	20	21	23
18	2	27	25	26	39
19	1	55	54	56	58
20	4	72	48	47	76
21	1	52	50	49	58
22	1	3	2	37	35
23	2	1	41	42	78
24	1	45	47	76	77
25	7	40	39	80	81
26	3	2	1	41	42
27	1	66	65	68	70
28	4	7	8	9	18
29	1	4	3	5	6
30	4	49	48	60	70
31	1	41	42	78	76
32	1	1	2	37	35
33	1	48	49	58	59
34	1	48	47	76	78
35	4	45	47	48	49
36	4	21	20	8	31
37	4	61	60	48	72
38	1	3	5	7	8
39	2	3	2	1	41
40	1	8	20	29	30
41	1	13	12	14	15
42	1	42	78	76	47
43	4	47	48	60	61
44	1	50	52	54	55
45	2	1	41	42	43
46	1	22	21	23	24
47	1	9	18	16	17
48	1	12	10	9	18
49	1	11	10	9	18
50	1	6	5	7	8
51	4	5	7	8	20
52	1	48	49	50	51
53	1	1	2	37	38
54	5	60	48	72	73
55	1	23	25	27	28
56	4	18	9	8	20
57	1	24	23	25	27
58	1	8	7	35	37
59	1	26	25	27	28
60	1	50	52	54	56
61	1	7	35	37	38
62	4	49	48	47	76
63	1	22	21	23	25
64	1	49	58	56	57
65	1	54	56	58	59
66	1	53	52	54	55
67	1	43	45	47	48
68	1	11	10	12	13
69	1	48	49	50	52
70	5	47	48	72	74
71	4	7	8	20	29
72	1	44	43	45	47
73	5	60	48	72	74
74	1	62	61	63	64
75	4	9	8	20	29
76	6	25	26	39	80
77	1	9	18	16	14
78	1	5	7	35	36
79	1	50	49	58	59
80	1	2	37	35	7
81	5	49	48	72	73
82	1	43	42	78	79
83	1	64	63	65	68
84	1	69	68	70	71
85	4	47	48	60	70
86	5	7	8	31	32
87	2	25	26	39	40
88	1	11	10	12	14
89	1	2	37	35	36
90	5	47	48	72	75
91	4	10	9	8	31
92	1	43	45	47	76
93	5	9	8	31	32
94	4	20	8	7	35
95	1	1	2	3	4
96	4	7	8	20	21
97	4	10	9	8	20
98	7	40	39	80	82
99	1	45	47	76	78
100	1	49	58	56	54
101	1	2	3	5	6
102	1	60	70	68	69
103	1	65	68	70	71
104	1	4	3	5	7
105	4	9	8	20	21
106	1	8	9	18	19
107	4	50	49	48	72
108	1	60	70	68	65
109	1	12	14	16	17
110	1	49	50	52	53
111	1	36	35	37	38
112	1	9	10	12	13
113	1	13	12	14	16
114	1	50	49	58	56
115	4	29	20	8	31
116	1	21	23	25	26
117	5	20	8	31	32
118	1	43	42	78	76
119	1	10	9	18	19
120	1	21	20	29	30
121	1	22	21	20	29
122	2	37	2	1	41
123	1	48	49	58	56
124	1	8	20	29	27
125	1	41	42	43	44
126	1	61	63	65	66
127	1	17	16	18	19
128	4	60	48	47	76
129	1	44	43	42	78
130	4	9	8	7	35
131	8	67	66	65	68
132	1	23	25	27	29
133	1	25	27	29	30
134	1	26	25	27	29
135	1	8	7	35	36
136	1	21	23	25	27
137	5	20	8	31	33
138	1	42	43	45	46
139	1	10	12	14	15
140	1	48	60	61	62
141	4	5	7	8	9
142	1	52	54	56	57
143	4	50	49	48	60
144	1	53	52	54	56
145	1	14	16	18	19
146	1	51	50	49	58
147	1	41	42	78	79
148	5	60	48	72	75
149	1	5	3	2	37
150	1	62	61	63	65
151	4	70	60	48	72
152	1	4	3	2	37
153	1	10	9	18	16
154	1	3	5	7	35
155	1	48	60	70	71
156	8	63	65	66	67
157	1	5	7	35	37
158	1	46	45	47	48
159	1	20	29	27	28
160	1	42	78	76	77
161	5	49	48	72	74
162	1	42	43	45	47
163	1	10	12	14	16
164	1	48	47	76	77
165	2	23	25	26	39
166	7	26	39	80	81
167	5	7	8	31	33
168	1	63	61	60	70
169	4	47	48	49	58
170	1	62	61	60	70
171	1	6	5	7	35
172	5	9	8	31	33
173	1	61	60	70	71
174	1	1	2	3	5
175	1	51	50	52	53
176	1	2	3	5	7
177	4	31	8	7	35
178	1	45	43	42	78
179	4	45	47	48	60
180	4	49	48	60	61
181	5	49	48	72	75
182	1	46	45	47	76
183	1	12	14	16	18
184	1	20	21	23	24
185	7	26	39	80	82
186	1	48	60	70	68
187	1	49	50	52	54
188	5	7	8	31	34
189	1	9	10	12	14
190	1	47	76	78	79
191	4	58	49	48	60
192	1	24	23	25	26
193	1	63	65	68	69
194	1	3	2	37	38
195	1	77	76	78	79
196	1	8	9	10	11
197	1	20	29	27	25
198	4	47	48	49	50
199	1	60	61	63	64
200	5	9	8	31	34
201	1	15	14	16	17
202	1	8	9	18	16
203	1	51	50	52	54
204	1	64	63	65	66
205	1	41	42	43	45
206	4	5	7	8	31
207	1	57	56	58	59
208	4	45	47	48	72
209	1	8	20	21	22
210	1	55	54	56	57
211	5	47	48	72	73
212	1	44	43	45	46
213	1	61	60	70	68

Impropers

4	1	3	4	5	2
10	1	5	7	3	6
16	1	76	77	78	47
17	1	37	38	2	35
19	1	29	30	20	27
21	1	27	29	25	28
23	1	7	35	5	8
24	1	80	81	82	39
27	1	70	60	68	71
28	1	45	43	46	47
29	1	76	78	47	77
30	1	25	26	27	23
34	1	16	17	18	14
35	1	43	45	42	44
36	1	65	66	68	63
40	1	52	50	53	54
46	1	10	12	9	11
48	1	58	59	49	56
50	1	70	68	71	60
52	1	68	65	69	70
55	1	63	65	61	64
57	1	54	55	56	52
58	1	49	50	58	48
60	1	18	9	16	19
61	1	78	76	79	42
62	1	9	8	10	18
63	1	25	23	26	27
67	1	29	27	30	20
69	1	58	49	56	59
71	1	68	70	65	69
72	1	42	78	41	43
75	1	65	63	66	68
78	1	7	5	8	35
82	1	14	12	15	16
87	1	35	36	37	7
93	1	54	56	52	55
100	1	37	2	35	38
101	1	10	9	11	12
105	1	29	20	27	30
106	1	35	7	36	37
108	1	21	22	23	20
112	1	21	20	22	23
113	1	20	21	29	8
117	1	54	52	55	56
118	2	39	26	40	80
119	1	65	68	63	66
121	1	61	62	63	60
122	1	50	49	51	52
129	1	49	58	48	50
131	1	10	11	12	9
134	1	23	24	25	21
135	1	80	82	39	81
137	1	70	71	60	68
143	1	47	48	76	45
145	2	39	80	26	40
147	1	78	79	42	76
150	1	2	1	3	37
151	1	50	51	52	49
161	1	63	61	64	65
163	1	49	48	50	58
164	1	9	10	18	8
165	1	23	25	21	24
167	1	43	44	45	42
172	1	43	42	44	45
174	1	27	25	28	29
181	2	39	40	80	26
182	1	78	42	76	79
187	1	3	5	2	4
188	1	50	52	49	51
199	1	52	54	50	53
210	1	45	47	43	46
211	1	37	35	38	2
214	1	14	15	16	12
218	1	47	76	45	48
219	1	42	43	78	41
220	1	56	54	57	58
221	1	9	18	8	10
222	1	68	69	70	65
223	1	16	18	14	17
224	1	5	6	7	3
229	1	60	48	61	70
232	1	47	45	48	76
233	1	56	57	58	54
235	1	12	13	14	10
237	1	20	29	8	21
239	1	3	2	4	5
240	1	7	8	35	5
244	1	35	37	7	36
245	1	60	61	70	48
246	1	14	16	12	15
251	1	76	47	77	78
253	1	42	41	43	78
259	1	56	58	54	57
261	1	80	39	81	82
264	1	21	23	20	22
265	1	52	53	54	50
268	1	61	60	62	63
273	1	25	27	23	26
277	1	20	8	21	29
279	1	18	16	19	9
285	1	2	37	1	3
288	1	5	3	6	7
289	1	63	64	65	61
295	1	45	46	47	43
298	1	27	28	29	25
300	1	60	70	48	61
305	1	2	3	37	1
309	1	16	14	17	18
312	1	12	10	13	14
319	1	61	63	60	62
320	1	18	19	9	16
321	1	23	21	24	25
323	1	58	56	59	49
324	1	12	14	10	13
