Title

60 atoms
62 bonds
100 angles
162 dihedrals
54 impropers

8 atom types
12 bond types
7 angle types
23 dihedral types
2 improper types
-4.842100756 13.15789924 xlo xhi
-3.644533124 14.35546688 ylo yhi
-5.929303523 12.07069648 zlo zhi
0.0 0.0 0.0 xy xz yz

Masses

1	12.01078
2	15.99943
3	1.007947
4	15.99943
5	12.01078
6	1.007947
7	15.99943
8	1.007947


Pair Coeffs

1	0.086879315	3.4806469
2	0.2102061	3.0398122
3	0.015611343	2.5725815
4	0.16846514	3.0251065
5	0.10884061	3.3795318
6	0.016409246	2.5832257
7	0.20947353	2.99716
8	1.2326e-05	0.53453923

Bond Coeffs

1 harmonic	582.698766451	1.225198386222
2 harmonic	279.1350963404	1.454628925034
3 harmonic	301.15400723785	1.345741232799
4 harmonic	399.1592953295	1.371688562017
5 harmonic	369.34270398985	1.364116986116
6 harmonic	397.2545789619	1.085358495916
7 harmonic	366.7408841747	1.425895053732
8 harmonic	264.62148576755	1.52190126495
9 harmonic	370.04670688625	1.093899492634
10 harmonic	329.96998057905	1.427343958716
11 harmonic	543.5267831885	0.9716763312559
12 harmonic	385.7604595587	1.369745182308


Angle Coeffs

1 harmonic	39.628116874445	129.8027304608
2 harmonic	65.09061609600001	110.3538806181
3 harmonic	57.8982893754	126.8062420451
4 harmonic	201.41175231035	127.4691416191
5 harmonic	79.1895422237	112.4630193006
6 harmonic	53.20531626545	116.5475862634
7 harmonic	48.776492647595	115.6030999533


Dihedral Coeffs

1 fourier 1	5.294842998052	2	180
2 fourier 1	1.659715194912	2	180
3 fourier 1	0.1918272375143	3	0
4 fourier 1	0.9202179876409	1	180
5 fourier 1	0.0473758381877	3	0
6 fourier 1	0.2347635637734	2	180
7 fourier 1	0.4747469131102	3	0
8 fourier 1	0.9974165607242	2	180
9 fourier 1	1.163809172478	2	180
10 fourier 1	0.1679186987369	1	180
11 fourier 1	2.779853741805	2	180
12 fourier 1	1.163235555439	2	180
13 fourier 1	-0.0309670556842	3	0
14 fourier 1	0.4598191477945	2	0
15 fourier 1	0.1115525666802	3	0
16 fourier 1	0.3432490222662	1	0
17 fourier 1	0.1911926717192	3	0
18 fourier 1	0.3445382149273	3	0
19 fourier 1	0.1364556373303	1	0
20 fourier 1	0.3026390167484	3	0
21 fourier 1	2.687457892086	2	180
22 fourier 1	2.772607909663	2	180
23 fourier 1	0.09692684957115	1	0


Improper Coeffs

1 0.3666666666666667	-1	2
2 3.5	-1	2


Atoms

1	1	1	0.67599564	0.96140714	1.5670406	3.5098781
2	1	2	-0.51586932	0.20140485	0.76377809	4.0301635
3	1	1	0.23015308	1.8343934	1.1645485	2.4041978
4	1	1	-0.2826359	2.7877809	1.9907405	1.846934
5	1	3	0.18643824	3.0439167	2.9969642	2.1482217
6	1	1	-0.28263587	3.3258707	1.2931285	0.80545334
7	1	3	0.18643829	4.0845816	1.6438106	0.11949874
8	1	1	0.23015311	2.659569	0.086815954	0.77026787
9	1	1	0.67623263	2.8362373	-0.89574785	-0.30524255
10	1	2	-0.51586932	2.1608103	-1.9144329	-0.3417122
11	1	4	-0.20939625	1.779933	0.019826562	1.7498219
12	1	4	-0.49136413	3.6560185	-0.54587254	-1.3327858
13	1	5	0.15122784	3.5963004	-1.0077006	-2.6314368
14	1	5	0.15122789	3.3589147	0.1821876	-3.5799145
15	1	4	-0.49136407	2.112532	0.74044659	-3.3553323
16	1	6	0.081371779	3.3768301	-0.20660114	-4.6194434
17	1	6	0.081371779	4.1609148	0.9468232	-3.4832443
18	1	6	0.081371779	4.5605861	-1.4936926	-2.8813127
19	1	6	0.081371779	2.7786051	-1.7505113	-2.7692328
20	1	1	0.67623263	1.7916742	1.5182333	-2.2884096
21	1	2	-0.51586932	2.5627819	2.3752281	-1.8833542
22	1	1	0.23015311	0.55657177	1.2168009	-1.5543125
23	1	1	-0.2826359	-0.31763427	0.22637469	-1.9185661
24	1	3	0.18643824	-0.25785056	-0.41089736	-2.7893998
25	1	1	-0.28263587	-1.2639739	0.18740042	-0.93504014
26	1	3	0.18643829	-2.0859148	-0.48135668	-0.92626518
27	1	1	0.23015317	-0.91494962	1.1416897	0.00092515792
28	1	1	0.67623263	-1.5845817	1.4434959	1.3042881
29	1	2	-0.51586932	-1.2719455	2.4899325	1.8465647
30	1	4	-0.20939625	0.17401791	1.7635464	-0.41707243
31	1	4	-0.49136413	-2.4721986	0.63539298	1.9603346
32	1	5	0.15122784	-2.9077673	-0.64377371	1.6456307
33	1	5	0.15122789	-1.7810956	-1.6928454	1.7196421
34	1	4	-0.49136407	-2.2211412	-2.8781972	1.1441476
35	1	6	0.081371779	-1.4658661	-1.86235	2.7706605
36	1	6	0.081371779	-0.88743435	-1.3138189	1.1798621
37	1	6	0.081371779	-3.7001726	-0.947337	2.362155
38	1	6	0.081371779	-3.4054456	-0.61802638	0.66243014
39	1	4	-0.48761699	0.92720875	2.8875368	3.8326323
40	1	5	0.13156834	0.12659129	3.4768136	4.7861146
41	1	5	0.091016005	0.74514725	3.3129839	6.1687032
42	1	7	-0.67889804	-0.0069614769	4.0063994	7.1250176
43	1	8	0.39369177	-0.83327934	3.4764069	7.2723972
44	1	6	0.089542317	1.7714259	3.7407531	6.1532254
45	1	6	0.089542317	0.83100743	2.2380803	6.4420517
46	1	6	0.088386337	0.070629606	4.5641125	4.5586075
47	1	6	0.088386337	-0.90736341	3.067726	4.7425833
48	1	1	0.67623263	-1.6807788	-3.2997845	-0.027310676
49	1	2	-0.51586932	-0.50892526	-3.6445331	-0.071602276
50	1	1	0.23015311	-2.3916941	-2.9627609	-1.2675911
51	1	1	-0.2826359	-3.728599	-2.6273196	-1.3597011
52	1	3	0.18643824	-4.4644759	-2.6448959	-0.56671789
53	1	1	-0.28606064	-3.9215159	-2.2061197	-2.6538142
54	1	3	0.18643829	-4.8421008	-1.8295136	-3.0803072
55	1	1	0.23778621	-2.6872266	-2.2974436	-3.2683546
56	1	1	0.72184217	-2.3676605	-1.8466373	-4.6299273
57	1	2	-0.50379503	-3.2409533	-1.3742238	-5.3425486
58	1	7	-0.69429732	-1.0894883	-1.881923	-5.0631392
59	1	8	0.40152737	-0.84137764	-1.5286391	-5.9293035
60	1	4	-0.21205323	-1.7960742	-2.7710258	-2.423549

Bonds

1	1	1	2
2	2	1	3
3	3	1	39
4	4	3	4
5	5	3	11
6	6	4	5
7	2	4	6
8	6	6	7
9	4	6	8
10	2	8	9
11	5	8	11
12	1	9	10
13	3	9	12
14	7	12	13
15	8	13	14
16	9	13	18
17	9	13	19
18	7	14	15
19	9	14	16
20	9	14	17
21	3	15	20
22	1	20	21
23	2	20	22
24	4	22	23
25	5	22	30
26	6	23	24
27	2	23	25
28	6	25	26
29	4	25	27
30	2	27	28
31	5	27	30
32	1	28	29
33	3	28	31
34	7	31	32
35	8	32	33
36	9	32	37
37	9	32	38
38	7	33	34
39	9	33	35
40	9	33	36
41	3	34	48
42	7	39	40
43	8	40	41
44	9	40	46
45	9	40	47
46	10	41	42
47	9	41	44
48	9	41	45
49	11	42	43
50	1	48	49
51	2	48	50
52	4	50	51
53	5	50	60
54	6	51	52
55	2	51	53
56	6	53	54
57	4	53	55
58	2	55	56
59	5	55	60
60	1	56	57
61	12	56	58
62	11	58	59

Angles

1	6	13	14	17
2	1	25	27	28
3	4	34	48	49
4	6	31	32	38
5	6	34	33	36
6	1	6	8	9
7	1	7	6	8
8	5	3	11	8
9	1	3	4	5
10	1	53	55	56
11	5	22	30	27
12	7	37	32	38
13	1	56	55	60
14	2	41	42	43
15	3	3	1	39
16	6	14	13	19
17	2	33	34	48
18	6	34	33	35
19	6	13	14	16
20	3	55	56	58
21	4	10	9	12
22	1	1	3	4
23	3	55	56	57
24	2	56	58	59
25	1	50	51	52
26	1	23	25	26
27	3	23	25	27
28	1	48	50	60
29	6	32	33	35
30	4	2	1	39
31	6	14	13	18
32	6	39	40	46
33	1	54	53	55
34	1	5	4	6
35	3	21	20	22
36	6	33	32	37
37	3	8	9	12
38	2	1	39	40
39	3	51	50	60
40	3	50	51	53
41	3	51	53	55
42	6	32	33	36
43	1	26	25	27
44	4	57	56	58
45	3	6	8	11
46	6	12	13	19
47	6	33	32	38
48	3	23	22	30
49	7	46	40	47
50	2	9	12	13
51	2	28	31	32
52	1	28	27	30
53	1	1	3	11
54	1	24	23	25
55	6	12	13	14
56	2	14	15	20
57	1	48	50	51
58	3	4	6	8
59	7	35	33	36
60	6	41	40	46
61	1	20	22	30
62	6	39	40	47
63	5	50	60	55
64	6	12	13	18
65	7	44	41	45
66	7	16	14	17
67	4	29	28	31
68	4	15	20	21
69	3	53	55	60
70	3	27	28	29
71	3	4	3	11
72	3	8	9	10
73	3	22	23	25
74	6	40	41	44
75	6	42	41	44
76	6	32	33	34
77	6	15	14	17
78	3	27	28	31
79	6	40	41	42
80	6	31	32	33
81	6	41	40	47
82	3	2	1	3
83	1	51	53	54
84	3	3	4	6
85	6	40	41	45
86	6	42	41	45
87	7	18	13	19
88	3	25	27	30
89	3	15	20	22
90	1	22	23	24
91	3	34	48	50
92	6	31	32	37
93	3	49	48	50
94	6	13	14	15
95	6	39	40	41
96	1	4	6	7
97	1	52	51	53
98	1	9	8	11
99	1	20	22	23
100	6	15	14	16

Dihedrals

1	5	28	31	32	38
2	8	15	20	22	30
3	17	17	14	13	19
4	5	35	33	34	48
5	1	48	50	51	52
6	8	25	27	28	31
7	6	6	8	9	10
7	7	6	8	9	10
8	1	51	53	55	56
9	8	53	55	56	58
10	1	4	6	8	11
11	8	11	8	9	12
12	6	53	55	56	57
12	7	53	55	56	57
13	15	42	41	40	46
13	16	42	41	40	46
14	1	7	6	8	9
15	5	36	33	34	48
16	8	49	48	50	60
17	2	3	11	8	9
18	12	5	4	6	8
19	20	43	42	41	45
20	2	22	30	27	28
21	2	48	50	60	55
22	17	44	41	40	47
23	2	1	3	11	8
24	8	57	56	55	60
25	5	9	12	13	18
26	2	22	30	27	25
27	8	2	1	3	11
28	1	1	3	4	5
29	17	45	41	40	46
30	2	51	50	60	55
31	12	24	23	25	26
32	8	34	48	50	60
33	6	21	20	22	23
33	7	21	20	22	23
34	1	23	25	27	28
35	12	24	23	25	27
36	1	20	22	23	25
37	11	33	34	48	50
38	17	17	14	13	18
39	3	13	14	15	20
39	4	13	14	15	20
40	11	8	9	12	13
41	6	25	27	28	29
41	7	25	27	28	29
42	1	6	4	3	11
43	3	1	39	40	41
43	4	1	39	40	41
44	13	31	32	33	34
44	14	31	32	33	34
45	20	43	42	41	44
46	1	54	53	55	60
47	21	55	56	58	59
48	12	3	4	6	7
49	13	12	13	14	15
49	14	12	13	14	15
50	12	22	23	25	26
51	12	22	23	25	27
52	3	9	12	13	14
52	4	9	12	13	14
53	8	11	3	1	39
54	5	17	14	15	20
55	6	49	48	50	51
55	7	49	48	50	51
56	9	33	34	48	49
56	10	33	34	48	49
57	15	42	41	40	47
57	16	42	41	40	47
58	15	39	40	41	44
58	16	39	40	41	44
59	12	50	51	53	54
60	1	20	22	23	24
61	15	12	13	14	17
61	16	12	13	14	17
62	3	32	33	34	48
62	4	32	33	34	48
63	15	15	14	13	19
63	16	15	14	13	19
64	11	27	28	31	32
65	8	34	48	50	51
66	17	45	41	40	47
67	1	4	6	8	9
68	8	15	20	22	23
69	1	48	50	51	53
70	15	34	33	32	37
70	16	34	33	32	37
71	1	54	53	55	56
72	11	3	1	39	40
73	1	25	23	22	30
74	15	39	40	41	45
74	16	39	40	41	45
75	22	57	56	58	59
75	23	57	56	58	59
76	11	14	15	20	22
77	1	7	6	8	11
78	2	4	3	11	8
79	2	50	60	55	56
80	17	16	14	13	19
81	9	10	9	12	13
81	10	10	9	12	13
82	9	14	15	20	21
82	10	14	15	20	21
83	1	52	51	50	60
84	12	52	51	53	55
85	1	5	4	3	11
86	8	4	3	1	39
87	5	16	14	15	20
88	17	36	33	32	37
89	15	34	33	32	38
89	16	34	33	32	38
90	8	30	27	28	31
91	15	12	13	14	16
91	16	12	13	14	16
92	2	3	11	8	6
93	2	23	22	30	27
94	17	35	33	32	38
95	2	20	22	30	27
96	1	26	25	27	30
97	6	2	1	3	4
97	7	2	1	3	4
98	13	39	40	41	42
98	14	39	40	41	42
99	9	29	28	31	32
99	10	29	28	31	32
100	8	29	28	27	30
101	8	58	56	55	60
102	5	1	39	40	46
103	1	24	23	22	30
104	17	36	33	32	38
105	12	50	51	53	55
106	17	16	14	13	18
107	8	10	9	8	11
108	8	6	8	9	12
109	1	53	51	50	60
110	17	35	33	32	37
111	3	28	31	32	33
111	4	28	31	32	33
112	9	2	1	39	40
112	10	2	1	39	40
113	12	5	4	6	7
114	8	21	20	22	30
115	1	23	25	27	30
116	15	31	32	33	35
116	16	31	32	33	35
117	15	15	14	13	18
117	16	15	14	13	18
118	17	44	41	40	46
119	1	51	53	55	60
120	1	1	3	4	6
121	12	3	4	6	8
122	5	28	31	32	37
123	5	1	39	40	47
124	18	40	41	42	43
124	19	40	41	42	43
125	15	31	32	33	36
125	16	31	32	33	36
126	12	52	51	53	54
127	2	50	60	55	53
128	5	9	12	13	19
129	1	26	25	27	28

Impropers

1	1	25	26	27	23
8	2	48	34	49	50
15	1	23	25	22	24
16	2	1	2	3	39
17	1	27	30	25	28
21	2	48	50	34	49
29	2	20	15	21	22
32	1	55	56	60	53
33	2	56	57	58	55
39	2	1	39	2	3
42	1	4	3	5	6
55	1	27	28	30	25
58	2	20	22	15	21
61	1	55	53	56	60
62	1	6	7	8	4
64	1	51	53	50	52
67	2	9	8	10	12
71	2	56	58	55	57
77	1	50	60	48	51
87	2	48	49	50	34
103	1	8	6	9	11
112	1	53	55	51	54
118	1	55	60	53	56
125	2	28	27	29	31
132	2	9	10	12	8
134	1	8	11	6	9
136	1	50	51	60	48
137	1	53	54	55	51
139	1	8	9	11	6
141	2	1	3	39	2
151	1	50	48	51	60
154	1	22	23	30	20
156	1	22	30	20	23
159	1	51	52	53	50
162	1	23	22	24	25
166	1	4	6	3	5
172	2	56	55	57	58
174	2	20	21	22	15
184	2	28	29	31	27
188	1	6	8	4	7
194	1	22	20	23	30
196	1	3	1	4	11
206	1	27	25	28	30
209	2	28	31	27	29
211	1	25	23	26	27
220	1	3	11	1	4
223	1	6	4	7	8
233	1	51	50	52	53
234	2	9	12	8	10
235	1	3	4	11	1
237	1	4	5	6	3
242	1	53	51	54	55
243	1	23	24	25	22
244	1	25	27	23	26
