Title

540 atoms
557 bonds
1094 angles
2424 dihedrals
102 impropers

11 atom types
14 bond types
9 angle types
35 dihedral types
3 improper types
-8.258999825 91.74100018 xlo xhi
-13.75399971 86.24600029 ylo yhi
-7.456999779 92.54300022 zlo zhi
0.0 0.0 0.0 xy xz yz

Masses

1	15.99943
2	12.01078
3	14.00672
4	12.01078
5	1.007947
6	1.007947
7	1.007947
8	15.99943
9	12.01078
10	15.99943
11	1.007947


Pair Coeffs

1	0.2102061	3.0398122
2	0.086879315	3.4806469
3	0.16769152	3.206876
4	0.10884061	3.3795318
5	0.014090815	1.1034277
6	0.015779483	2.6445434
7	0.016409246	2.5832257
8	0.16846514	3.0251065
9	0.21	3.3996695
10	0.20947353	2.99716
11	1.2326e-05	0.53453923

Bond Coeffs

1 harmonic	582.698766451	1.225198386222
2 harmonic	492.76746816345	1.381897776683
3 harmonic	301.15400723785	1.345741232799
4 harmonic	352.0565580496	1.450098586273
5 harmonic	505.144496193	1.019481865027
6 harmonic	264.62148576755	1.52190126495
7 harmonic	370.04670688625	1.093899492634
8 harmonic	279.1350963404	1.454628925034
9 harmonic	366.7408841747	1.425895053732
10 harmonic	300.03137914615	1.451203938761
11 harmonic	366.34047229585	1.464762957261
12 harmonic	602.81384337	1.196112346392
13 harmonic	329.96998057905	1.427343958716
14 harmonic	543.5267831885	0.9716763312559


Angle Coeffs

1 harmonic	57.8982893754	126.8062420451
2 harmonic	201.41175231035	127.4691416191
3 harmonic	55.42182150775	117.3465570514
4 harmonic	63.44422595415	115.5071327674
5 harmonic	65.09061609600001	110.3538806181
6 harmonic	53.20531626545	116.5475862634
7 harmonic	48.776492647595	115.6030999533
8 harmonic	55.07882548015	112.8714009681
9 harmonic	33.56981613361	180


Dihedral Coeffs

1 fourier 1	1.809047390003	2	180
2 fourier 1	-0.04816277792592	1	0
3 fourier 1	0.4860993122944	2	180
4 fourier 1	0.8916986138746	1	0
5 fourier 1	1.163809172478	2	180
6 fourier 1	0.1679186987369	1	180
7 fourier 1	-0.1488678166443	4	180
8 fourier 1	-0.1230328948768	3	180
9 fourier 1	0.2939295466901	2	0
10 fourier 1	-0.3024127022865	1	0
11 fourier 1	0.182238503271	2	0
12 fourier 1	0.02972342374561	3	0
13 fourier 1	0.1918272375143	3	0
14 fourier 1	0.9202179876409	1	180
15 fourier 1	0.0473758381877	3	0
16 fourier 1	2.779853741805	2	180
17 fourier 1	0.1155372516788	3	0
18 fourier 1	0.09223874044423	3	0
19 fourier 1	0.3159935921949	2	180
20 fourier 1	0.3247796806857	1	180
21 fourier 1	0.1040663847541	3	0
22 fourier 1	3.101948770557	2	180
23 fourier 1	-0.4252153282372	1	0
24 fourier 1	0.9974165607242	2	180
25 fourier 1	2.348375642009	2	180
26 fourier 1	1.256156174911	1	0
27 fourier 1	0.1911926717192	3	0
28 fourier 1	0.1115525666802	3	0
29 fourier 1	0.3432490222662	1	0
30 fourier 1	0.457973137376	1	0
31 fourier 1	-1.382973039546	1	0
32 fourier 1	0	1	0
33 fourier 1	0.3445382149273	3	0
34 fourier 1	0.1364556373303	1	0
35 fourier 1	0.3026390167484	3	0


Improper Coeffs

1 3.5	-1	2
2 0.3333333333333333	-1	2
3 0.3666666666666667	-1	2


Atoms

1	1	1	-0.62823302	4.3569999	-0.79299998	2.1559999
2	1	2	0.77779198	4.2280002	-1.342	1.029
3	1	3	-0.444893	3.3629999	-0.78799999	0.032000002
4	1	4	-0.0061019999	2.552	0.41299999	0.24699999
5	1	4	-0.010095	1.054	0.071000002	0.51599997
6	1	4	-0.208566	0.30000001	1.416	0.71100003
7	1	4	0.123814	-1.234	1.276	0.70899999
8	1	3	-0.57177198	-1.855	2.598	0.86000001
9	1	2	0.55387402	-3.2219999	2.7650001	1.2539999
10	1	1	-0.69871497	-3.95	1.7690001	1.506
11	1	5	0.308377	-1.288	3.4630001	0.713
12	1	4	-0.21219601	-1.705	0.63200003	-0.60600001
13	1	4	-0.030252	-1.071	-0.75700003	-0.87099999
14	1	4	-0.213144	0.48199999	-0.69700003	-0.72000003
15	1	6	0.108097	0.89200002	-1.7309999	-0.74599999
16	1	6	0.108097	0.88200003	-0.19499999	-1.63
17	1	4	-0.17361	-1.7	-1.836	0.045000002
18	1	6	0.071139	-2.7620001	-2.01	-0.23100001
19	1	6	0.071139	-1.707	-1.55	1.109
20	1	6	0.071139	-1.159	-2.802	-0.056000002
21	1	4	-0.17361	-1.395	-1.163	-2.3280001
22	1	6	0.071139	-0.97899997	-0.42899999	-3.052
23	1	6	0.071139	-0.963	-2.161	-2.562
24	1	6	0.071139	-2.494	-1.212	-2.4920001
25	1	6	0.107929	-1.448	1.324	-1.4400001
26	1	6	0.107929	-2.813	0.537	-0.597
27	1	7	0.037588	-1.543	0.65600002	1.574
28	1	6	0.106374	0.58200002	2.118	-0.106
29	1	6	0.106374	0.61799997	1.888	1.668
30	1	4	-0.171821	0.98699999	-0.77999997	1.8099999
31	1	6	0.068037003	1.6210001	-0.329	2.6040001
32	1	6	0.068037003	-0.026000001	-0.83999997	2.2390001
33	1	6	0.068037003	1.349	-1.813	1.625
34	1	7	0.069594003	2.641	1.056	-0.65600002
35	1	7	0.069594003	2.967	1.013	1.087
36	1	5	0.32036901	3.2920001	-1.285	-0.884
37	1	8	-0.48983601	2.5899999	-8.4169998	3.4660001
38	1	4	0.092517003	2.348	-7.1500001	4.0180001
39	1	4	-0.074146003	3.5940001	-6.2509999	3.9000001
40	1	4	-0.16646799	3.391	-4.9489999	4.717
41	1	4	-0.16646799	4.289	-3.822	4.1999998
42	1	4	-0.074146003	3.924	-3.431	2.7449999
43	1	4	-0.16646799	3.391	-4.6360002	1.921
44	1	4	-0.16646799	3.9619999	-5.9710002	2.415
45	1	6	0.092846997	3.608	-6.789	1.751
46	1	6	0.092846997	5.0689998	-5.9390001	2.3139999
47	1	6	0.092846997	3.6199999	-4.5170002	0.83999997
48	1	6	0.092846997	2.283	-4.6750002	2.006
49	1	4	0.089270003	5.1290002	-2.7579999	2.059
50	1	8	-0.488473	4.7589998	-2.2090001	0.82300001
51	1	7	0.094558999	5.9320002	-3.5079999	1.89
52	1	7	0.094558999	5.5479999	-1.96	2.7149999
53	1	6	0.083996996	3.1059999	-2.677	2.7980001
54	1	6	0.092846997	4.1820002	-2.9330001	4.8600001
55	1	6	0.092846997	5.348	-4.1589999	4.263
56	1	6	0.092846997	3.6210001	-5.1440001	5.7870002
57	1	6	0.092846997	2.332	-4.6100001	4.6589999
58	1	6	0.083996996	4.448	-6.8000002	4.355
59	1	7	0.094558999	1.495	-6.684	3.48
60	1	7	0.094558999	2.052	-7.257	5.0879998
61	1	1	-0.62823302	10.627	-7.684	7.881
62	1	2	0.77779198	10.991	-8.8380003	7.5310001
63	1	3	-0.444893	10.402	-9.4879999	6.4000001
64	1	4	-0.0061019999	9.3299999	-8.8900003	5.5970001
65	1	4	-0.010095	7.9330001	-9.5	5.9330001
66	1	4	-0.20746499	6.8909998	-8.8030005	5.0149999
67	1	4	0.12567	5.5079999	-9.4799995	5.0180001
68	1	3	-0.522089	4.6069999	-8.7770004	4.0960002
69	1	2	0.80159903	3.184	-8.9289999	4.145
70	1	1	-0.623833	2.641	-9.6700001	5.007
71	1	5	0.311602	4.9959998	-8.1099997	3.392
72	1	4	-0.2111	5.6370001	-10.952	4.5910001
73	1	4	-0.030252	6.5999999	-11.769	5.4889998
74	1	4	-0.213144	7.9699998	-11.036	5.645
75	1	6	0.108097	8.5760002	-11.553	6.4219999
76	1	6	0.108097	8.5299997	-11.175	4.6919999
77	1	4	-0.17361	5.9510002	-12.079	6.8600001
78	1	6	0.071139	5.098	-12.781	6.7360001
79	1	6	0.071139	5.5380001	-11.186	7.355
80	1	6	0.071139	6.6859999	-12.553	7.5450001
81	1	4	-0.17361	6.862	-13.13	4.8000002
82	1	6	0.071139	7.3260002	-12.99	3.799
83	1	6	0.071139	7.5469999	-13.754	5.4130001
84	1	6	0.071139	5.9130001	-13.69	4.6550002
85	1	6	0.107929	5.9990001	-10.974	3.5380001
86	1	6	0.107929	4.6329999	-11.43	4.5960002
87	1	7	0.039625	5.072	-9.4110003	6.0349998
88	1	6	0.106374	7.2690001	-8.7989998	3.967
89	1	6	0.106374	6.7740002	-7.7399998	5.3210001
90	1	4	-0.171821	7.631	-9.1960001	7.4229999
91	1	6	0.068037003	7.862	-8.1339998	7.6570001
92	1	6	0.068037003	6.5700002	-9.3339996	7.6880002
93	1	6	0.068037003	8.243	-9.8369999	8.092
94	1	7	0.069594003	9.5699997	-9.0550003	4.5229998
95	1	7	0.069594003	9.3129997	-7.7870002	5.737
96	1	5	0.32036901	10.739	-10.445	6.1539998
97	1	8	-0.48983601	10.181	-12.317	14.307
98	1	4	0.092517003	9.5109997	-11.235	13.718
99	1	4	-0.074146003	10.508	-10.268	13.05
100	1	4	-0.16646799	9.7810001	-8.9709997	12.613
101	1	4	-0.16646799	10.539	-8.2580004	11.489
102	1	4	-0.074146003	10.593	-9.1269999	10.207
103	1	4	-0.16646799	10.624	-10.65	10.519
104	1	4	-0.16646799	11.271	-10.947	11.878
105	1	6	0.092846997	11.334	-12.047	12.022
106	1	6	0.092846997	12.318	-10.571	11.858
107	1	6	0.092846997	11.162	-11.213	9.7259998
108	1	6	0.092846997	9.5830002	-11.04	10.533
109	1	4	0.089270003	11.785	-8.7010002	9.3280001
110	1	8	-0.488473	11.731	-9.3240004	8.073
111	1	7	0.094558999	12.738	-8.9829998	9.8249998
112	1	7	0.094558999	11.79	-7.5939999	9.198
113	1	6	0.083996996	9.6630001	-8.9259996	9.6289997
114	1	6	0.092846997	10.038	-7.2919998	11.261
115	1	6	0.092846997	11.566	-8.026	11.85
116	1	6	0.092846997	9.6859999	-8.2869997	13.485
117	1	6	0.092846997	8.7519999	-9.198	12.254
118	1	6	0.083996996	11.263	-9.9840002	13.818
119	1	7	0.094558999	8.8009996	-11.627	12.958
120	1	7	0.094558999	8.9130001	-10.698	14.489
121	1	1	-0.62823302	15.999	-5.8140001	17.221001
122	1	2	0.77779198	16.691999	-6.6430001	17.870001
123	1	3	-0.444893	16.653	-8.04	17.561001
124	1	4	-0.0061019999	15.801	-8.6099997	16.513
125	1	4	-0.010095	14.533	-9.3050003	17.1
126	1	4	-0.20746499	13.724	-9.8780003	15.904
127	1	4	0.12567	12.59	-10.834	16.319
128	1	3	-0.522089	11.912	-11.352	15.125
129	1	2	0.80159903	10.616	-11.959	15.178
130	1	1	-0.623833	9.9910002	-12.058	16.267
131	1	5	0.311602	12.358	-11.253	14.185
132	1	4	-0.2111	13.158	-12.006	17.138
133	1	4	-0.030252	13.927	-11.553	18.405001
134	1	4	-0.213144	14.985	-10.46	18.052999
135	1	6	0.108097	15.399	-10.034	18.993999
136	1	6	0.108097	15.839	-10.974	17.558001
137	1	4	-0.17361	12.948	-11.077	19.506001
138	1	6	0.071139	12.35	-11.931	19.891001
139	1	6	0.071139	12.218	-10.335	19.145
140	1	6	0.071139	13.503	-10.636	20.362
141	1	4	-0.17361	14.679	-12.779	18.975
142	1	6	0.071139	15.403	-13.185	18.235001
143	1	6	0.071139	15.243	-12.502	19.892
144	1	6	0.071139	13.969	-13.595	19.235001
145	1	6	0.107929	13.84	-12.589	16.476999
146	1	6	0.107929	12.332	-12.69	17.431
147	1	7	0.039625	11.844	-10.274	16.916
148	1	6	0.106374	14.412	-10.434	15.227
149	1	6	0.106374	13.292	-9.0419998	15.309
150	1	4	-0.171821	13.705	-8.2270002	17.846001
151	1	6	0.068037003	13.618	-7.3080001	17.228001
152	1	6	0.068037003	12.67	-8.5419998	18.056999
153	1	6	0.068037003	14.187	-7.9510002	18.808001
154	1	7	0.069594003	16.406	-9.3439999	15.937
155	1	7	0.069594003	15.506	-7.822	15.785
156	1	5	0.32036901	17.246	-8.684	18.132
157	1	8	-0.48983601	14.475	-4.6090002	24.914
158	1	4	0.092517003	13.821	-4.5739999	23.674
159	1	4	-0.074146003	14.754	-4.0279999	22.575001
160	1	4	-0.16646799	13.951	-3.776	21.273001
161	1	4	-0.16646799	14.865	-3.789	20.044001
162	1	4	-0.074146003	15.516	-5.1810002	19.84
163	1	4	-0.16646799	15.764	-5.9250002	21.181999
164	1	4	-0.16646799	15.981	-4.954	22.349001
165	1	6	0.092846997	16.224001	-5.5320001	23.266001
166	1	6	0.092846997	16.872999	-4.329	22.124001
167	1	6	0.092846997	16.636999	-6.6100001	21.107
168	1	6	0.092846997	14.882	-6.5619998	21.414
169	1	4	0.089270003	16.811001	-5.0450001	19.014999
170	1	8	-0.488473	17.299999	-6.3049998	18.639
171	1	7	0.094558999	17.587	-4.527	19.617001
172	1	7	0.094558999	16.624001	-4.428	18.106001
173	1	6	0.083996996	14.804	-5.7979999	19.245001
174	1	6	0.092846997	14.274	-3.5209999	19.141001
175	1	6	0.092846997	15.645	-3.006	20.177999
176	1	6	0.092846997	13.436	-2.793	21.339001
177	1	6	0.092846997	13.168	-4.5549998	21.136
178	1	6	0.083996996	15.14	-3.043	22.923
179	1	7	0.094558999	13.497	-5.605	23.413
180	1	7	0.094558999	12.905	-3.944	23.749001
181	1	1	-0.62823302	17.518999	3.6989999	22.395
182	1	2	0.77779198	18.121	3.8740001	23.487
183	1	3	-0.444893	18.481001	2.7650001	24.319
184	1	4	-0.0061019999	18.156	1.374	23.99
185	1	4	-0.010095	16.943001	0.84200001	24.815001
186	1	4	-0.20746499	16.707001	-0.634	24.392
187	1	4	0.12567	15.729	-1.396	25.306
188	1	3	-0.522089	15.601	-2.786	24.853001
189	1	2	0.80159903	14.517	-3.6300001	25.254999
190	1	1	-0.623833	13.608	-3.2	26.014
191	1	5	0.311602	16.297001	-3.1830001	24.181999
192	1	4	-0.2111	16.233999	-1.372	26.759001
193	1	4	-0.030252	16.434	0.061000001	27.316
194	1	4	-0.213144	17.292999	0.92199999	26.337
195	1	6	0.108097	17.278999	1.983	26.673
196	1	6	0.108097	18.351	0.58999997	26.445
197	1	4	-0.17361	15.073	0.72799999	27.631001
198	1	6	0.071139	14.577	0.21600001	28.483999
199	1	6	0.071139	14.362	0.67699999	26.792
200	1	6	0.071139	15.213	1.795	27.91
201	1	4	-0.17361	17.201	-0.046999998	28.656
202	1	6	0.071139	18.195	-0.52499998	28.511999
203	1	6	0.071139	17.364	0.95999998	29.096001
204	1	6	0.071139	16.635	-0.662	29.389
205	1	6	0.107929	17.200001	-1.925	26.797001
206	1	6	0.107929	15.521	-1.925	27.409
207	1	7	0.039625	14.728	-0.92400002	25.239
208	1	6	0.106374	17.679001	-1.179	24.4
209	1	6	0.106374	16.326	-0.66799998	23.347
210	1	4	-0.171821	15.71	1.711	24.455999
211	1	6	0.068037003	15.636	1.846	23.356001
212	1	6	0.068037003	14.754	1.257	24.764
213	1	6	0.068037003	15.783	2.7160001	24.923
214	1	7	0.069594003	19.056	0.75199997	24.191
215	1	7	0.069594003	17.955	1.272	22.9
216	1	5	0.32036901	18.978001	2.9660001	25.215
217	1	8	-0.48983601	13.358	9.0489998	26.521
218	1	4	0.092517003	13.151	7.9879999	25.627001
219	1	4	-0.074146003	14.252	7.9530001	24.549999
220	1	4	-0.16646799	13.884	6.9310002	23.444
221	1	4	-0.16646799	15.128	6.447	22.695
222	1	4	-0.074146003	16.087999	5.6750002	23.636
223	1	4	-0.16646799	16.038	6.1989999	25.099001
224	1	4	-0.16646799	15.653	7.6820002	25.167
225	1	6	0.092846997	15.701	8.0249996	26.224001
226	1	6	0.092846997	16.416	8.2690001	24.610001
227	1	6	0.092846997	17.01	6.0479999	25.615
228	1	6	0.092846997	15.283	5.6139998	25.67
229	1	4	0.089270003	17.521	5.7020001	23.069
230	1	8	-0.488473	18.360001	4.8379998	23.788
231	1	7	0.094558999	17.931999	6.7329998	23.135
232	1	7	0.094558999	17.514	5.4120002	21.993999
233	1	6	0.083996996	15.755	4.612	23.653
234	1	6	0.092846997	14.82	5.7849998	21.856001
235	1	6	0.092846997	15.639	7.3319998	22.252001
236	1	6	0.092846997	13.18	7.4029999	22.724001
237	1	6	0.092846997	13.37	6.046	23.882
238	1	6	0.083996996	14.288	8.9589996	24.075001
239	1	7	0.094558999	13.154	7.0349998	26.198999
240	1	7	0.094558999	12.149	8.0889997	25.149
241	1	1	-0.62823302	15.23	13.793	18.864
242	1	2	0.77779198	15.393	14.867	19.5
243	1	3	-0.444893	15.688	14.86	20.900999
244	1	4	-0.0061019999	15.789	13.632	21.695999
245	1	4	-0.010095	14.515	13.384	22.561001
246	1	4	-0.20746499	14.746	12.074	23.363001
247	1	4	0.12567	13.708	11.831	24.474001
248	1	3	-0.522089	14.031	10.595	25.197001
249	1	2	0.80159903	13.079	9.915	26.023001
250	1	1	-0.623833	11.903	10.35	26.15
251	1	5	0.311602	14.975	10.158	25.091999
252	1	4	-0.2111	13.696	13.014	25.455999
253	1	4	-0.030252	13.397	14.374	24.774
254	1	4	-0.213144	14.326	14.592	23.538
255	1	6	0.108097	13.979	15.485	22.972
256	1	6	0.108097	15.335	14.858	23.924999
257	1	4	-0.17361	11.899	14.49	24.4
258	1	6	0.071139	11.273	14.547	25.316999
259	1	6	0.071139	11.527	13.621	23.834
260	1	6	0.071139	11.713	15.407	23.801001
261	1	4	-0.17361	13.691	15.499	25.796
262	1	6	0.071139	14.755	15.479	26.120001
263	1	6	0.071139	13.485	16.496	25.35
264	1	6	0.071139	13.06	15.385	26.704
265	1	6	0.107929	14.69	13.058	25.955
266	1	6	0.107929	12.944	12.828	26.254
267	1	7	0.039625	12.708	11.702	24.014
268	1	6	0.106374	15.754	12.105	23.836
269	1	6	0.106374	14.742	11.205	22.667999
270	1	4	-0.171821	13.311	13.224	21.597
271	1	6	0.068037003	13.573	12.542	20.76
272	1	6	0.068037003	12.426	12.777	22.077
273	1	6	0.068037003	13.015	14.203	21.165001
274	1	7	0.069594003	16.684999	13.716	22.35
275	1	7	0.069594003	15.98	12.758	21.033001
276	1	5	0.32036901	15.812	15.779	21.379999
277	1	8	-0.48983601	8.9230003	18.368	17.364
278	1	4	0.092517003	9.2469997	17.014999	17.544001
279	1	4	-0.074146003	10.621	16.691	16.924
280	1	4	-0.16646799	10.856	15.158	16.924
281	1	4	-0.16646799	12.349	14.824	16.865999
282	1	4	-0.074146003	13.09	15.333	18.129
283	1	4	-0.16646799	12.458	16.629	18.709
284	1	4	-0.16646799	11.768	17.469	17.627001
285	1	6	0.092846997	11.396	18.414	18.079
286	1	6	0.092846997	12.529	17.759001	16.870001
287	1	6	0.092846997	13.218	17.250999	19.226999
288	1	6	0.092846997	11.7	16.353001	19.475
289	1	4	0.089270003	14.59	15.518	17.823999
290	1	8	-0.488473	15.312	15.772	18.999001
291	1	7	0.094558999	14.73	16.372	17.128
292	1	7	0.094558999	14.995	14.608	17.323
293	1	6	0.083996996	13.002	14.543	18.908001
294	1	6	0.092846997	12.477	13.723	16.780001
295	1	6	0.092846997	12.777	15.283	15.947
296	1	6	0.092846997	10.342	14.705	16.049
297	1	6	0.092846997	10.427	14.694	17.84
298	1	6	0.083996996	10.595	17.024	15.862
299	1	7	0.094558999	9.2650003	16.796	18.634001
300	1	7	0.094558999	8.4580002	16.375	17.086
301	1	1	-0.62823302	12.138	16.951	8.8610001
302	1	2	0.77779198	11.855	18.122999	8.4960003
303	1	3	-0.444893	11.673	19.172001	9.4540005
304	1	4	-0.0061019999	11.767	18.965	10.902
305	1	4	-0.010095	10.363	18.902	11.58
306	1	4	-0.20746499	10.592	18.697001	13.103
307	1	4	0.12567	9.3249998	18.892	13.956
308	1	3	-0.522089	9.6479998	18.718	15.376
309	1	2	0.80159903	8.6459999	18.476999	16.370001
310	1	1	-0.623833	7.4289999	18.389	16.055
311	1	5	0.311602	10.645	18.73	15.692
312	1	4	-0.2111	8.7449999	20.298	13.728
313	1	4	-0.030252	8.4049997	20.589001	12.244
314	1	4	-0.213144	9.6160002	20.252001	11.319
315	1	6	0.108097	9.2930002	20.306	10.257
316	1	6	0.108097	10.365	21.066999	11.445
317	1	4	-0.17361	7.1209998	19.839001	11.813
318	1	6	0.071139	6.2329998	20.252001	12.339
319	1	6	0.071139	7.145	18.764999	12.057
320	1	6	0.071139	6.9499998	19.948	10.72
321	1	4	-0.17361	8.1059999	22.101999	12.107
322	1	6	0.071139	8.9849997	22.712999	12.406
323	1	6	0.071139	7.8499999	22.357	11.056
324	1	6	0.071139	7.2529998	22.398001	12.756
325	1	6	0.107929	9.4899998	21.042	14.092
326	1	6	0.107929	7.8309999	20.429001	14.349
327	1	7	0.039625	8.5799999	18.120001	13.68
328	1	6	0.106374	11.361	19.42	13.459
329	1	6	0.106374	10.998	17.677	13.286
330	1	4	-0.171821	9.6009998	17.691999	10.979
331	1	6	0.068037003	10.259	16.797001	10.946
332	1	6	0.068037003	8.7229996	17.393	11.574
333	1	6	0.068037003	9.2620001	17.91	9.9440002
334	1	7	0.069594003	12.362	19.799999	11.332
335	1	7	0.069594003	12.343	18.038	11.123
336	1	5	0.32036901	11.437	20.125	9.0970001
337	1	8	-0.48983601	5.848	16.436001	4.053
338	1	4	0.092517003	6.3730001	15.823	5.1999998
339	1	4	-0.074146003	7.9089999	15.725	5.1170001
340	1	4	-0.16646799	8.4490004	14.843	6.2719998
341	1	4	-0.16646799	9.915	15.162	6.5780001
342	1	4	-0.074146003	10.081	16.617001	7.0879998
343	1	4	-0.16646799	9.0349998	17.587	6.4699998
344	1	4	-0.16646799	8.5740004	17.129999	5.0809999
345	1	6	0.092846997	7.8850002	17.891001	4.6550002
346	1	6	0.092846997	9.4610004	17.096001	4.4099998
347	1	6	0.092846997	9.4359999	18.621	6.401
348	1	6	0.092846997	8.1459999	17.636999	7.1360002
349	1	4	0.089270003	11.523	17.101999	6.8449998
350	1	8	-0.488473	11.753	18.329	7.4850001
351	1	7	0.094558999	11.698	17.231001	5.7550001
352	1	7	0.094558999	12.251	16.344	7.2140002
353	1	6	0.083996996	9.9130001	16.605	8.1890001
354	1	6	0.092846997	10.294	14.455	7.348
355	1	6	0.092846997	10.512	15	5.6529999
356	1	6	0.092846997	8.3559999	13.77	5.993
357	1	6	0.092846997	7.8540001	15	7.1989999
358	1	6	0.083996996	8.1610003	15.214	4.1609998
359	1	7	0.094558999	6.0819998	16.422001	6.0890002
360	1	7	0.094558999	5.9299998	14.808	5.3200002
361	1	1	-0.62823302	11.876	11.055	-0.345
362	1	2	0.77779198	11.486	11.445	-1.477
363	1	3	-0.444893	10.786	12.684	-1.632
364	1	4	-0.0061019999	10.445	13.561	-0.50800002
365	1	4	-0.010095	8.9440002	13.44	-0.101
366	1	4	-0.20746499	8.7030001	14.421	1.08
367	1	4	0.12567	7.2160001	14.633	1.421
368	1	3	-0.522089	7.0890002	15.6	2.517
369	1	2	0.80159903	5.8920002	15.732	3.293
370	1	1	-0.623833	4.8920002	14.999	3.0699999
371	1	5	0.311602	7.902	16.201	2.7820001
372	1	4	-0.2111	6.4580002	15.151	0.186
373	1	4	-0.030252	6.566	14.209	-1.04
374	1	4	-0.213144	8.0550003	13.837	-1.326
375	1	6	0.108097	8.0909996	13.034	-2.095
376	1	6	0.108097	8.5319996	14.724	-1.8
377	1	4	-0.17361	5.6820002	12.952	-0.852
378	1	6	0.071139	4.605	13.228	-0.866
379	1	6	0.071139	5.8509998	12.444	0.111
380	1	6	0.071139	5.8569999	12.222	-1.671
381	1	4	-0.17361	6.0159998	14.963	-2.2750001
382	1	6	0.071139	6.5999999	15.887	-2.473
383	1	6	0.071139	6.0689998	14.32	-3.181
384	1	6	0.071139	4.9559999	15.26	-2.119
385	1	6	0.107929	6.8709998	16.152	-0.075999998
386	1	6	0.107929	5.3870001	15.301	0.44400001
387	1	7	0.039625	6.7820001	13.673	1.7640001
388	1	6	0.106374	9.1429996	15.413	0.82999998
389	1	6	0.106374	9.2320004	14.052	1.9859999
390	1	4	-0.171821	8.6920004	11.978	0.34999999
391	1	6	0.068037003	9.4980001	11.639	1.035
392	1	6	0.068037003	7.7519999	11.852	0.91100001
393	1	6	0.068037003	8.6700001	11.292	-0.523
394	1	7	0.069594003	10.677	14.608	-0.80400002
395	1	7	0.069594003	11.099	13.342	0.36500001
396	1	5	0.32036901	10.484	12.959	-2.5929999
397	1	8	-0.48983601	7.75	5.0939999	-3.5699999
398	1	4	0.092517003	7.9899998	5.6760001	-2.316
399	1	4	-0.074146003	9.4540005	6.1459999	-2.1989999
400	1	4	-0.16646799	9.7629995	6.5669999	-0.74000001
401	1	4	-0.16646799	10.946	7.5370002	-0.67799997
402	1	4	-0.074146003	10.626	8.8649998	-1.41
403	1	4	-0.16646799	9.6590004	8.6660004	-2.6099999
404	1	4	-0.16646799	9.7819996	7.2659998	-3.2249999
405	1	6	0.092846997	9.125	7.1999998	-4.119
406	1	6	0.092846997	10.825	7.1329999	-3.589
407	1	6	0.092846997	9.8330002	9.4300003	-3.3989999
408	1	6	0.092846997	8.6120005	8.8050003	-2.2609999
409	1	4	0.089270003	11.933	9.5609999	-1.839
410	1	8	-0.488473	11.678	10.858	-2.3110001
411	1	7	0.094558999	12.421	8.9779997	-2.6489999
412	1	7	0.094558999	12.644	9.6059999	-0.98199999
413	1	6	0.083996996	10.116	9.533	-0.67900002
414	1	6	0.092846997	11.195	7.7490001	0.38499999
415	1	6	0.092846997	11.832	7.039	-1.135
416	1	6	0.092846997	9.993	5.664	-0.134
417	1	6	0.092846997	8.8789997	7.0619998	-0.278
418	1	6	0.083996996	10.105	5.2750001	-2.4389999
419	1	7	0.094558999	7.3060002	6.5419998	-2.1889999
420	1	7	0.094558999	7.757	4.9429998	-1.51
421	1	1	-0.62823302	15.872	1.029	-2.1059999
422	1	2	0.77779198	15.799	0.36700001	-3.175
423	1	3	-0.444893	14.942	0.78200001	-4.244
424	1	4	-0.0061019999	14.077	1.9630001	-4.1700001
425	1	4	-0.010095	12.586	1.586	-3.9070001
426	1	4	-0.20746499	11.774	2.9089999	-3.865
427	1	4	0.12567	10.248	2.7049999	-3.892
428	1	3	-0.522089	9.5699997	4.006	-3.8900001
429	1	2	0.80159903	8.1870003	4.1529999	-3.549
430	1	1	-0.623833	7.4920001	3.1559999	-3.217
431	1	5	0.311602	10.106	4.8769999	-4.1069999
432	1	4	-0.2111	9.8409996	1.914	-5.1479998
433	1	4	-0.030252	10.538	0.53399998	-5.257
434	1	4	-0.213144	12.082	0.67500001	-5.0739999
435	1	6	0.108097	12.535	-0.33700001	-4.987
436	1	6	0.108097	12.489	1.102	-6.0190001
437	1	4	-0.17361	9.927	-0.47499999	-4.2540002
438	1	6	0.071139	8.8809996	-0.72100002	-4.539
439	1	6	0.071139	9.8769999	-0.086000003	-3.2249999
440	1	6	0.071139	10.509	-1.4220001	-4.2449999
441	1	4	-0.17361	10.274	-0.027000001	-6.6750002
442	1	6	0.071139	10.682	0.64899999	-7.4569998
443	1	6	0.071139	10.753	-1.023	-6.7969999
444	1	6	0.071139	9.1829996	-0.139	-6.8600001
445	1	6	0.107929	10.095	2.5309999	-6.04
446	1	6	0.107929	8.7379999	1.773	-5.158
447	1	7	0.039625	9.9379997	2.1600001	-2.9779999
448	1	6	0.106374	12.052	3.539	-4.7410002
449	1	6	0.106374	12.045	3.4860001	-2.9530001
450	1	4	-0.171821	12.516	0.86400002	-2.536
451	1	6	0.068037003	13.108	1.418	-1.775
452	1	6	0.068037003	11.494	0.80199999	-2.1289999
453	1	6	0.068037003	12.925	-0.16599999	-2.608
454	1	7	0.069594003	14.167	2.517	-5.131
455	1	7	0.069594003	14.443	2.6600001	-3.3840001
456	1	5	0.32036901	14.918	0.19499999	-5.1079998
457	1	8	-0.149529	14.375	-6.4970002	-0.086999997
458	1	4	0.016461	14.066	-5.1939998	0.33000001
459	1	4	-0.073351003	15.278	-4.2579999	0.153
460	1	4	-0.165205	14.999	-2.892	0.83099997
461	1	4	-0.165626	15.866	-1.783	0.228
462	1	4	-0.074146003	15.528	-1.553	-1.267
463	1	4	-0.165626	15.069	-2.8559999	-1.9809999
464	1	4	-0.165205	15.678	-4.1100001	-1.341
465	1	6	0.093475997	15.377	-5.0040002	-1.929
466	1	6	0.093475997	16.785	-4.04	-1.4170001
467	1	6	0.092846997	15.325	-2.8340001	-3.062
468	1	6	0.092846997	13.961	-2.9330001	-1.92
469	1	4	0.089270003	16.725	-0.90100002	-1.9859999
470	1	8	-0.488473	16.370001	-0.49200001	-3.28
471	1	7	0.094558999	17.562	-1.628	-2.0599999
472	1	7	0.094558999	17.093	-0.025	-1.403
473	1	6	0.083996996	14.679	-0.83399999	-1.311
474	1	6	0.092846997	15.704	-0.83899999	0.79299998
475	1	6	0.092846997	16.934999	-2.0669999	0.35100001
476	1	6	0.093475997	15.205	-2.97	1.921
477	1	6	0.093475997	13.93	-2.605	0.713
478	1	6	0.086916	16.139999	-4.723	0.68300003
479	1	7	0.094465002	13.211	-4.8200002	-0.27399999
480	1	7	0.094465002	13.744	-5.2069998	1.397
481	1	1	-0.69871497	-4.8800001	3.905	1.466
482	1	2	0.55387402	-3.635	3.7609999	1.3430001
483	1	3	-0.57177198	-2.76	4.895	1.325
484	1	4	0.123563	-3.2539999	6.2729998	1.426
485	1	4	-0.21219601	-2.1059999	7.224	1.798
486	1	4	-0.030784	-2.6170001	8.6639996	2.096
487	1	4	-0.17361	-1.485	9.6820002	1.822
488	1	6	0.071139	-1.809	10.711	2.089
489	1	6	0.071139	-1.181	9.6890001	0.759
490	1	6	0.071139	-0.58700001	9.4359999	2.4289999
491	1	4	-0.17361	-2.973	8.7729998	3.599
492	1	6	0.071139	-3.3670001	9.7860003	3.835
493	1	6	0.071139	-2.0780001	8.5950003	4.2350001
494	1	6	0.071139	-3.7460001	8.0279999	3.882
495	1	4	-0.21177199	-3.8900001	9.0170002	1.251
496	1	4	0.022382	-4.0500002	8.2480001	-0.101
497	1	4	-0.20847601	-3.9100001	6.697	0.093000002
498	1	6	0.106246	-3.329	6.2600002	-0.75
499	1	6	0.106246	-4.902	6.1999998	0.043000001
500	1	4	-0.170312	-2.9920001	8.7399998	-1.1210001
501	1	6	0.064689003	-3.223	8.3579998	-2.1400001
502	1	6	0.064689003	-1.978	8.375	-0.87599999
503	1	6	0.064689003	-2.9719999	9.8500004	-1.169
504	1	4	0.14126	-5.4439998	8.5819998	-0.71200001
505	1	3	-0.65181601	-6.5370002	8.1540003	0.161
506	1	9	0.59916002	-7.4109998	8.9700003	0.597
507	1	1	-0.49479899	-8.2589998	9.7639999	1.022
508	1	7	0.064703003	-5.513	9.6759996	-0.91799998
509	1	7	0.064703003	-5.5599999	8.059	-1.686
510	1	6	0.106786	-4.7859998	8.7869997	1.867
511	1	6	0.106786	-3.941	10.114	1.0700001
512	1	6	0.107929	-1.564	6.8179998	2.681
513	1	6	0.107929	-1.365	7.2270002	0.97000003
514	1	7	0.037588	-4.0159998	6.316	2.2349999
515	1	5	0.308377	-1.733	4.7119999	1.2640001
516	1	8	-0.149529	14.944	-6.895	0.62199998
517	1	4	0.016461	15.917	-7.6680002	-0.028999999
518	1	4	-0.073351003	16.999001	-6.77	-0.66100001
519	1	4	-0.164419	17.929001	-7.6160002	-1.568
520	1	4	-0.15735599	19.292	-6.9429998	-1.751
521	1	4	-0.114784	20.052999	-6.8340001	-0.405
522	1	4	-0.15735599	19.096001	-6.664	0.80800003
523	1	4	-0.164419	17.785	-5.9710002	0.41600001
524	1	6	0.093475997	17.169001	-5.8099999	1.327
525	1	6	0.093475997	18.027	-4.9619999	0.016000001
526	1	6	0.093475997	19.582001	-6.092	1.628
527	1	6	0.093475997	18.851999	-7.6669998	1.224
528	1	4	0.078613997	21.093	-5.6989999	-0.47499999
529	1	10	-0.67406303	21.933001	-5.7199998	0.648
530	1	11	0.37739599	22.565001	-6.474	0.51700002
531	1	7	0.082947999	20.575001	-4.717	-0.514
532	1	7	0.082947999	21.702999	-5.7940001	-1.402
533	1	6	0.090549998	20.608	-7.7880001	-0.25799999
534	1	6	0.093475997	19.9	-7.5300002	-2.474
535	1	6	0.093475997	19.129	-5.9349999	-2.194
536	1	6	0.093475997	17.450001	-7.756	-2.562
537	1	6	0.093475997	18.091999	-8.6269999	-1.131
538	1	6	0.086916	16.482	-6.0300002	-1.312
539	1	7	0.094465002	16.382	-8.3529997	0.71200001
540	1	7	0.094465002	15.435	-8.2980003	-0.81199998

Bonds

1	1	1	2
2	2	2	3
3	3	2	50
4	4	3	4
5	5	3	36
6	6	4	5
7	7	4	34
8	7	4	35
9	6	5	6
10	6	5	30
11	6	5	14
12	6	6	7
13	7	6	28
14	7	6	29
15	4	7	8
16	6	7	12
17	7	7	27
18	2	8	9
19	5	8	11
20	1	9	10
21	8	9	482
22	6	12	13
23	7	12	25
24	7	12	26
25	6	13	14
26	6	13	17
27	6	13	21
28	7	14	15
29	7	14	16
30	7	17	18
31	7	17	19
32	7	17	20
33	7	21	22
34	7	21	23
35	7	21	24
36	7	30	31
37	7	30	32
38	7	30	33
39	9	37	38
40	3	37	69
41	6	38	39
42	7	38	59
43	7	38	60
44	6	39	40
45	7	39	58
46	6	39	44
47	6	40	41
48	7	40	56
49	7	40	57
50	6	41	42
51	7	41	54
52	7	41	55
53	6	42	43
54	6	42	49
55	7	42	53
56	6	43	44
57	7	43	47
58	7	43	48
59	7	44	45
60	7	44	46
61	9	49	50
62	7	49	51
63	7	49	52
64	1	61	62
65	2	62	63
66	3	62	110
67	4	63	64
68	5	63	96
69	6	64	65
70	7	64	94
71	7	64	95
72	6	65	66
73	6	65	90
74	6	65	74
75	6	66	67
76	7	66	88
77	7	66	89
78	4	67	68
79	6	67	72
80	7	67	87
81	2	68	69
82	5	68	71
83	1	69	70
84	6	72	73
85	7	72	85
86	7	72	86
87	6	73	74
88	6	73	77
89	6	73	81
90	7	74	75
91	7	74	76
92	7	77	78
93	7	77	79
94	7	77	80
95	7	81	82
96	7	81	83
97	7	81	84
98	7	90	91
99	7	90	92
100	7	90	93
101	9	97	98
102	3	97	129
103	6	98	99
104	7	98	119
105	7	98	120
106	6	99	100
107	7	99	118
108	6	99	104
109	6	100	101
110	7	100	116
111	7	100	117
112	6	101	102
113	7	101	114
114	7	101	115
115	6	102	103
116	6	102	109
117	7	102	113
118	6	103	104
119	7	103	107
120	7	103	108
121	7	104	105
122	7	104	106
123	9	109	110
124	7	109	111
125	7	109	112
126	1	121	122
127	2	122	123
128	3	122	170
129	4	123	124
130	5	123	156
131	6	124	125
132	7	124	154
133	7	124	155
134	6	125	126
135	6	125	150
136	6	125	134
137	6	126	127
138	7	126	148
139	7	126	149
140	4	127	128
141	6	127	132
142	7	127	147
143	2	128	129
144	5	128	131
145	1	129	130
146	6	132	133
147	7	132	145
148	7	132	146
149	6	133	134
150	6	133	137
151	6	133	141
152	7	134	135
153	7	134	136
154	7	137	138
155	7	137	139
156	7	137	140
157	7	141	142
158	7	141	143
159	7	141	144
160	7	150	151
161	7	150	152
162	7	150	153
163	9	157	158
164	3	157	189
165	6	158	159
166	7	158	179
167	7	158	180
168	6	159	160
169	7	159	178
170	6	159	164
171	6	160	161
172	7	160	176
173	7	160	177
174	6	161	162
175	7	161	174
176	7	161	175
177	6	162	163
178	6	162	169
179	7	162	173
180	6	163	164
181	7	163	167
182	7	163	168
183	7	164	165
184	7	164	166
185	9	169	170
186	7	169	171
187	7	169	172
188	1	181	182
189	2	182	183
190	3	182	230
191	4	183	184
192	5	183	216
193	6	184	185
194	7	184	214
195	7	184	215
196	6	185	186
197	6	185	210
198	6	185	194
199	6	186	187
200	7	186	208
201	7	186	209
202	4	187	188
203	6	187	192
204	7	187	207
205	2	188	189
206	5	188	191
207	1	189	190
208	6	192	193
209	7	192	205
210	7	192	206
211	6	193	194
212	6	193	197
213	6	193	201
214	7	194	195
215	7	194	196
216	7	197	198
217	7	197	199
218	7	197	200
219	7	201	202
220	7	201	203
221	7	201	204
222	7	210	211
223	7	210	212
224	7	210	213
225	9	217	218
226	3	217	249
227	6	218	219
228	7	218	239
229	7	218	240
230	6	219	220
231	7	219	238
232	6	219	224
233	6	220	221
234	7	220	236
235	7	220	237
236	6	221	222
237	7	221	234
238	7	221	235
239	6	222	223
240	6	222	229
241	7	222	233
242	6	223	224
243	7	223	227
244	7	223	228
245	7	224	225
246	7	224	226
247	9	229	230
248	7	229	231
249	7	229	232
250	1	241	242
251	2	242	243
252	3	242	290
253	4	243	244
254	5	243	276
255	6	244	245
256	7	244	274
257	7	244	275
258	6	245	246
259	6	245	270
260	6	245	254
261	6	246	247
262	7	246	268
263	7	246	269
264	4	247	248
265	6	247	252
266	7	247	267
267	2	248	249