Title

80 atoms
79 bonds
144 angles
260 dihedrals
18 impropers

11 atom types
14 bond types
9 angle types
35 dihedral types
3 improper types
-12.50599957 87.49400043 xlo xhi
-4.198999882 95.80100012 ylo yhi
-7.673999786 92.32600021 zlo zhi
0.0 0.0 0.0 xy xz yz

Masses

1	12.01078
2	15.99943
3	14.00672
4	12.01078
5	1.007947
6	1.007947
7	1.007947
8	15.99943
9	12.01078
10	15.99943
11	1.007947


Pair Coeffs

1	0.086879315	3.4806469
2	0.2102061	3.0398122
3	0.16769152	3.206876
4	0.10884061	3.3795318
5	0.014090815	1.1034277
6	0.016409246	2.5832257
7	0.015779483	2.6445434
8	0.16846514	3.0251065
9	0.21	3.3996695
10	0.20947353	2.99716
11	1.2326e-05	0.53453923

Bond Coeffs

1 harmonic	582.698766451	1.225198386222
2 harmonic	492.76746816345	1.381897776683
3 harmonic	279.1350963404	1.454628925034
4 harmonic	352.0565580496	1.450098586273
5 harmonic	505.144496193	1.019481865027
6 harmonic	264.62148576755	1.52190126495
7 harmonic	370.04670688625	1.093899492634
8 harmonic	301.15400723785	1.345741232799
9 harmonic	366.7408841747	1.425895053732
10 harmonic	300.03137914615	1.451203938761
11 harmonic	366.34047229585	1.464762957261
12 harmonic	602.81384337	1.196112346392
13 harmonic	329.96998057905	1.427343958716
14 harmonic	543.5267831885	0.9716763312559


Angle Coeffs

1 harmonic	55.42182150775	117.3465570514
2 harmonic	63.44422595415	115.5071327674
3 harmonic	57.8982893754	126.8062420451
4 harmonic	53.20531626545	116.5475862634
5 harmonic	65.09061609600001	110.3538806181
6 harmonic	201.41175231035	127.4691416191
7 harmonic	48.776492647595	115.6030999533
8 harmonic	55.07882548015	112.8714009681
9 harmonic	33.56981613361	180


Dihedral Coeffs

1 fourier 1	-0.1488678166443	4	180
2 fourier 1	-0.1230328948768	3	180
3 fourier 1	0.2939295466901	2	0
4 fourier 1	-0.3024127022865	1	0
5 fourier 1	0.182238503271	2	0
6 fourier 1	0.02972342374561	3	0
7 fourier 1	1.809047390003	2	180
8 fourier 1	-0.04816277792592	1	0
9 fourier 1	3.101948770557	2	180
10 fourier 1	-0.4252153282372	1	0
11 fourier 1	2.348375642009	2	180
12 fourier 1	1.256156174911	1	0
13 fourier 1	0.9974165607242	2	180
14 fourier 1	0.1155372516788	3	0
15 fourier 1	0.09223874044423	3	0
16 fourier 1	0.3159935921949	2	180
17 fourier 1	0.3247796806857	1	180
18 fourier 1	0.1040663847541	3	0
19 fourier 1	2.779853741805	2	180
20 fourier 1	0.1918272375143	3	0
21 fourier 1	0.9202179876409	1	180
22 fourier 1	0.0473758381877	3	0
23 fourier 1	0.4860993122944	2	180
24 fourier 1	0.8916986138746	1	0
25 fourier 1	1.163809172478	2	180
26 fourier 1	0.1679186987369	1	180
27 fourier 1	0.1911926717192	3	0
28 fourier 1	0.1115525666802	3	0
29 fourier 1	0.3432490222662	1	0
30 fourier 1	0.457973137376	1	0
31 fourier 1	-1.382973039546	1	0
32 fourier 1	0	1	0
33 fourier 1	0.3445382149273	3	0
34 fourier 1	0.1364556373303	1	0
35 fourier 1	0.3026390167484	3	0


Improper Coeffs

1 0.3333333333333333	-1	2
2 0.3666666666666667	-1	2
3 3.5	-1	2


Atoms

1	1	1	0.54478401	-4.6939998	1.331	-0.38600001
2	1	2	-0.674734	-5.1230001	1.428	0.79500002
3	1	3	-0.520042	-3.4430001	0.69599998	-0.66100001
4	1	4	0.032230001	-2.6159999	0.13600001	0.40700001
5	1	4	-0.144688	-1.3329999	-0.479	-0.161
6	1	4	-0.14131799	-0.45199999	-1.053	0.95899999
7	1	4	-0.14131799	0.75700003	-1.8430001	0.42699999
8	1	4	-0.143398	1.749	-1.023	-0.41800001
9	1	4	0.026455	2.3959999	0.12800001	0.36399999
10	1	3	-0.463449	3.4519999	0.76200002	-0.42399999
11	1	1	0.788324	4.2150002	1.858	0.088
12	1	2	-0.600061	3.9979999	2.3099999	1.244
13	1	5	0.32812399	3.668	0.42500001	-1.39
14	1	6	0.060614001	1.6289999	0.89200002	0.61000001
15	1	6	0.060614001	2.832	-0.264	1.309
16	1	7	0.090907	1.249	-0.62900001	-1.3279999
17	1	7	0.090907	2.55	-1.7130001	-0.75999999
18	1	7	0.089622997	1.301	-2.2809999	1.293
19	1	7	0.089622997	0.38800001	-2.6930001	-0.186
20	1	7	0.089622997	-0.114	-0.237	1.633
21	1	7	0.089622997	-1.063	-1.749	1.574
22	1	7	0.090907	-0.77499998	0.31	-0.708
23	1	7	0.090907	-1.602	-1.289	-0.875
24	1	6	0.057007	-3.1960001	-0.64499998	0.94499999
25	1	6	0.057007	-2.352	0.94400001	1.125
26	1	5	0.32154301	-3.1300001	0.63999999	-1.6569999
27	1	8	-0.49546799	4.9559999	2.2869999	-0.49700001
28	1	4	0.114816	5.6090002	1.235	-1.155
29	1	4	-0.135501	6.5780001	0.53500003	-0.19599999
30	1	4	-0.14270499	7.1999998	-0.74000001	-0.792
31	1	4	0.036286999	8.2060003	-0.461	-1.915
32	1	8	-0.161066	7.5349998	-0.17399999	-3.1099999
33	1	6	0.090195999	8.8339996	-1.368	-2.0610001
34	1	6	0.090195999	8.875	0.384	-1.633
35	1	7	0.097685002	7.737	-1.268	0.026000001
36	1	7	0.097685002	6.4029999	-1.424	-1.156
37	1	7	0.096538998	6.0209999	0.24600001	0.722
38	1	7	0.096538998	7.3790002	1.243	0.11
39	1	6	0.090102002	4.8639998	0.51099998	-1.556
40	1	6	0.090102002	6.1719999	1.663	-2.01
41	1	1	0.54478401	-5.2810001	1.734	-1.2
42	1	2	-0.674734	-5.3039999	1.13	-2.3050001
43	1	3	-0.520042	-6.013	2.95	-1.011
44	1	4	0.032230001	-6.8260002	3.556	-2.0639999
45	1	4	-0.144688	-8.1389999	2.786	-2.2379999
46	1	4	-0.14113501	-9.0120001	3.427	-3.3280001
47	1	4	-0.13693701	-10.394	2.7650001	-3.4449999
48	1	4	-0.121122	-10.327	1.36	-4.0650001
49	1	4	0.18556499	-11.726	0.75800002	-4.27
50	1	3	-0.62866801	-12.506	1.5190001	-5.2420001
51	1	9	0.59418201	-12.193	1.558	-6.4749999
52	1	2	-0.45163399	-11.887	1.597	-7.6739998
53	1	6	0.034940999	-11.632	-0.29699999	-4.6100001
54	1	6	0.034940999	-12.269	0.75099999	-3.3010001
55	1	7	0.084524997	-9.7629995	0.68199998	-3.3900001
56	1	7	0.084524997	-9.7910004	1.397	-5.0380001
57	1	7	0.088336997	-10.874	2.7149999	-2.4430001
58	1	7	0.088336997	-11.027	3.415	-4.0879998
59	1	7	0.089622997	-9.1660004	4.4990001	-3.079
60	1	7	0.089622997	-8.4879999	3.381	-4.3080001
61	1	7	0.090907	-7.9089999	1.7359999	-2.513
62	1	7	0.090907	-8.6890001	2.7869999	-1.271
63	1	6	0.057007	-6.2540002	3.572	-3.0179999
64	1	6	0.057007	-7.053	4.6069999	-1.783
65	1	5	0.32154301	-5.9109998	3.4530001	-0.101
66	1	8	-0.161066	8.2410002	0.013	-3.7839999
67	1	4	0.036400001	8.7980003	-1.225	-4.1350002
68	1	4	-0.13696501	9.7679996	-1.6950001	-3.046
69	1	4	-0.16401701	10.284	-3.1259999	-3.2750001
70	1	4	0.089909002	11.25	-3.2449999	-4.4580002
71	1	10	-0.67789799	10.542	-3.2579999	-5.6659999
72	1	11	0.38817999	11.223	-3.319	-6.3850002
73	1	6	0.081896998	11.816	-4.1989999	-4.3600001
74	1	6	0.081896998	11.98	-2.405	-4.447
75	1	7	0.100149	10.827	-3.4400001	-2.3559999
76	1	7	0.100149	9.4309998	-3.8269999	-3.4059999
77	1	7	0.097861998	9.2390003	-1.674	-2.0680001
78	1	7	0.097861998	10.624	-0.98799998	-2.977
79	1	6	0.090195999	7.9920001	-1.979	-4.2930002
80	1	6	0.090195999	9.3439999	-1.095	-5.092

Bonds

1	1	1	2
2	2	1	3
3	3	1	41
4	4	3	4
5	5	3	26
6	6	4	5
7	7	4	24
8	7	4	25
9	6	5	6
10	7	5	22
11	7	5	23
12	6	6	7
13	7	6	20
14	7	6	21
15	6	7	8
16	7	7	18
17	7	7	19
18	6	8	9
19	7	8	16
20	7	8	17
21	4	9	10
22	7	9	14
23	7	9	15
24	2	10	11
25	5	10	13
26	1	11	12
27	8	11	27
28	9	27	28
29	6	28	29
30	7	28	39
31	7	28	40
32	6	29	30
33	7	29	37
34	7	29	38
35	6	30	31
36	7	30	35
37	7	30	36
38	9	31	32
39	7	31	33
40	7	31	34
41	10	32	66
42	1	41	42
43	2	41	43
44	4	43	44
45	5	43	65
46	6	44	45
47	7	44	63
48	7	44	64
49	6	45	46
50	7	45	61
51	7	45	62
52	6	46	47
53	7	46	59
54	7	46	60
55	6	47	48
56	7	47	57
57	7	47	58
58	6	48	49
59	7	48	55
60	7	48	56
61	11	49	50
62	7	49	53
63	7	49	54
64	12	50	51
65	1	51	52
66	9	66	67
67	6	67	68
68	7	67	79
69	7	67	80
70	6	68	69
71	7	68	77
72	7	68	78
73	6	69	70
74	7	69	75
75	7	69	76
76	13	70	71
77	7	70	73
78	7	70	74
79	14	71	72

Angles

1	3	42	41	43
2	4	68	69	76
3	4	7	6	20
4	4	10	9	15
5	3	10	11	27
6	7	39	28	40
7	4	5	4	24
8	7	33	31	34
9	2	44	43	65
10	7	79	67	80
11	4	9	8	17
12	7	73	70	74
13	7	22	5	23
14	4	7	6	21
15	3	1	41	43
16	7	59	46	60
17	4	46	47	57
18	7	14	9	15
19	5	32	66	67
20	4	69	68	78
21	4	68	67	79
22	4	7	8	9
23	4	67	68	77
24	4	8	9	15
25	1	9	10	11
26	4	29	30	36
27	4	44	45	46
28	4	69	70	74
29	4	27	28	29
30	4	49	48	56
31	4	71	70	74
32	4	44	45	62
33	4	47	48	55
34	4	6	7	8
35	4	46	47	58
36	4	46	45	62
37	4	30	31	34
38	4	68	67	80
39	4	66	67	68
40	7	57	47	58
41	4	67	68	69
42	5	70	71	72
43	4	43	44	63
44	4	45	46	60
45	4	48	49	53
46	4	8	7	18
47	5	11	27	28
48	3	2	1	3
49	7	55	48	56
50	7	24	4	25
51	4	66	67	80
52	4	69	70	71
53	4	30	29	37
54	1	41	43	44
55	7	20	6	21
56	4	6	7	18
57	3	10	11	12
58	5	31	32	66
59	4	70	69	75
60	4	8	7	19
61	4	31	30	35
62	4	3	4	24
63	4	66	67	79
64	7	37	29	38
65	4	45	44	63
66	4	5	4	25
67	4	47	46	59
68	4	48	49	50
69	4	50	49	53
70	7	63	44	64
71	6	12	11	27
72	7	18	7	19
73	4	30	29	38
74	4	7	8	16
75	4	28	29	37
76	2	1	3	26
77	4	70	69	76
78	4	32	31	33
79	4	4	5	22
80	4	67	68	78
81	4	3	4	25
82	4	27	28	39
83	4	45	44	64
84	4	6	5	22
85	4	3	4	5
86	4	50	49	54
87	4	47	48	56
88	7	77	68	78
89	4	68	69	70
90	4	5	6	7
91	7	61	45	62
92	4	4	5	23
93	4	68	69	75
94	4	5	6	20
95	4	43	44	64
96	2	9	10	13
97	4	4	5	6
98	4	48	49	54
99	4	10	9	14
100	3	3	1	41
101	3	1	41	42
102	7	53	49	54
103	4	28	29	30
104	4	9	8	16
105	2	41	43	65
106	7	75	69	76
107	4	5	6	21
108	4	6	7	19
109	2	4	3	26
110	4	30	31	32
111	4	69	68	77
112	4	43	44	45
113	4	31	30	36
114	4	47	48	49
115	9	50	51	52
116	3	2	1	41
117	4	8	9	14
118	1	1	3	4
119	2	11	10	13
120	4	48	47	57
121	4	29	30	35
122	4	69	70	73
123	4	29	28	39
124	4	47	46	60
125	4	49	48	55
126	4	71	70	73
127	4	44	45	61
128	4	45	46	47
129	4	46	45	61
130	4	7	8	17
131	4	46	47	48
132	8	49	50	51
133	4	28	29	38
134	4	29	30	31
135	4	30	31	33
136	4	32	31	34
137	4	27	28	40
138	4	48	47	58
139	4	6	5	23
140	4	8	9	10
141	4	29	28	40
142	4	45	46	59
143	7	16	8	17
144	7	35	30	36

Dihedrals

1	35	72	71	70	73
2	27	55	48	47	57
3	27	73	70	69	75
4	27	77	68	67	79
5	18	47	46	45	61
6	14	68	69	70	71
7	14	3	4	5	6
8	22	32	66	67	68
9	5	11	10	9	15
9	6	11	10	9	15
10	5	8	9	10	13
10	6	8	9	10	13
11	27	35	30	29	37
12	18	48	47	46	60
13	7	9	10	11	27
13	8	9	10	11	27
14	18	46	45	44	63
15	18	7	8	9	14
16	18	49	48	47	58
17	28	71	70	69	76
17	29	71	70	69	76
18	27	54	49	48	56
19	27	78	68	67	80
20	9	42	41	43	44
20	10	42	41	43	44
21	27	57	47	46	59
22	27	61	45	44	63
23	7	4	3	1	41
23	8	4	3	1	41
24	28	32	31	30	36
24	29	32	31	30	36
25	27	77	68	67	80
26	18	47	46	45	62
27	22	32	66	67	80
28	14	10	9	8	17
29	20	11	27	28	29
29	21	11	27	28	29
30	18	47	48	49	54
31	18	69	68	67	79
32	15	5	6	7	8
32	16	5	6	7	8
32	17	5	6	7	8
33	27	20	6	5	22
34	11	42	41	43	65
34	12	42	41	43	65
35	27	23	5	4	24
36	15	67	68	69	70
36	16	67	68	69	70
36	17	67	68	69	70
37	7	1	41	43	44
37	8	1	41	43	44
38	5	25	4	3	26
38	6	25	4	3	26
39	18	7	8	9	15
40	27	19	7	6	20
41	27	62	45	44	64
42	28	66	67	68	77
42	29	66	67	68	77
43	14	47	48	49	50
44	27	61	45	44	64
45	18	67	68	69	75
46	28	27	28	29	37
46	29	27	28	29	37
47	18	31	30	29	38
48	7	26	3	1	41
48	8	26	3	1	41
49	27	16	8	7	18
50	18	46	47	48	56
51	13	3	1	41	42
52	18	28	29	30	36
53	27	75	69	68	77
54	18	29	30	31	34
55	9	2	1	3	4
55	10	2	1	3	4
56	18	6	7	8	17
57	18	7	6	5	22
58	18	44	45	46	60
59	14	66	67	68	69
60	5	5	4	3	26
60	6	5	4	3	26
61	27	36	30	29	37
62	28	27	28	29	38
62	29	27	28	29	38
63	27	58	47	46	59
64	27	76	69	68	77
65	27	74	70	69	75
66	13	2	1	41	43
67	27	17	8	7	19
68	18	5	6	7	18
69	5	63	44	43	65
69	6	63	44	43	65
70	14	50	49	48	56
71	27	16	8	7	19
72	27	59	46	45	62
73	19	10	11	27	28
74	35	72	71	70	74
75	27	55	48	47	58
76	27	73	70	69	76
77	18	7	6	5	23
78	7	9	10	11	12
78	8	9	10	11	12
79	18	8	7	6	20
80	5	24	4	3	26
80	6	24	4	3	26
81	5	1	3	4	24
81	6	1	3	4	24
82	27	36	30	29	38
83	27	35	30	29	38
84	22	33	31	32	66
85	18	46	45	44	64
86	14	27	28	29	30
87	5	41	43	44	63
87	6	41	43	44	63
88	27	22	5	4	24
89	27	57	47	46	60
90	27	18	7	6	20
91	27	37	29	28	39
92	15	46	47	48	49
92	16	46	47	48	49
92	17	46	47	48	49
93	22	30	31	32	66
94	27	56	48	47	57
95	18	68	69	70	73
96	27	21	6	5	22
97	5	13	10	9	14
97	6	13	10	9	14
98	18	30	29	28	39
99	7	1	41	43	65
99	8	1	41	43	65
100	18	69	68	67	80
101	14	43	44	45	61
102	22	34	31	32	66
103	27	20	6	5	23
104	27	38	29	28	39
105	27	23	5	4	25
106	27	19	7	6	21
107	15	4	5	6	7
107	16	4	5	6	7
107	17	4	5	6	7
108	28	66	67	68	78
108	29	66	67	68	78
109	27	15	9	8	16
110	18	6	5	4	24
111	27	22	5	4	25
112	27	18	7	6	21
113	18	4	5	6	20
114	15	6	7	8	9
114	16	6	7	8	9
114	17	6	7	8	9
115	1	8	9	10	11
115	2	8	9	10	11
115	3	8	9	10	11
115	4	8	9	10	11
116	18	67	68	69	76
117	27	56	48	47	58
118	5	13	10	9	15
118	6	13	10	9	15
119	25	12	11	27	28
119	26	12	11	27	28
120	27	60	46	45	61
121	15	45	46	47	48
121	16	45	46	47	48
121	17	45	46	47	48
122	18	9	8	7	18
123	27	38	29	28	40
124	27	75	69	68	78
125	18	6	5	4	25
126	33	69	70	71	72
126	34	69	70	71	72
127	13	3	1	41	43
128	31	51	50	49	53
129	23	12	11	10	13
129	24	12	11	10	13
130	18	70	69	68	77
131	18	48	47	46	59
132	27	58	47	46	60
133	27	76	69	68	78
134	27	74	70	69	76
135	32	49	50	51	52
136	18	5	6	7	19
137	18	49	48	47	57
138	31	48	49	50	51
139	27	33	31	30	35
140	27	78	68	67	79
141	11	2	1	3	26
141	12	2	1	3	26
142	28	32	31	30	35
142	29	32	31	30	35
143	22	11	27	28	39
144	22	32	66	67	79
145	14	10	9	8	16
146	18	8	7	6	21
147	5	1	3	4	25
147	6	1	3	4	25
148	18	47	48	49	53
149	31	51	50	49	54
150	18	70	69	68	78
151	27	14	9	8	16
152	30	31	32	66	67
153	1	1	3	4	5
153	2	1	3	4	5
153	3	1	3	4	5
153	4	1	3	4	5
154	27	34	31	30	35
155	14	29	30	31	32
156	5	41	43	44	64
156	6	41	43	44	64
157	27	62	45	44	63
158	27	33	31	30	36
159	5	64	44	43	65
159	6	64	44	43	65
160	27	37	29	28	40
161	5	45	44	43	65
161	6	45	44	43	65
162	15	44	45	46	47
162	16	44	45	46	47
162	17	44	45	46	47
163	18	31	30	29	37
164	18	68	69	70	74
165	22	11	27	28	40
166	27	21	6	5	23
167	14	43	44	45	46
168	18	45	46	47	57
169	7	13	10	11	27
169	8	13	10	11	27
170	18	30	29	28	40
171	14	3	4	5	22
172	14	43	44	45	62
173	27	53	49	48	55
174	27	14	9	8	17
175	18	46	47	48	55
176	27	59	46	45	61
177	18	28	29	30	35
178	27	34	31	30	36
179	18	29	30	31	33
180	27	15	9	8	17
181	18	6	7	8	16
182	18	44	45	46	59
183	14	7	8	9	10
184	13	2	1	41	42
185	18	4	5	6	21
186	5	11	10	9	14
186	6	11	10	9	14
187	1	41	43	44	45
187	2	41	43	44	45
187	3	41	43	44	45
187	4	41	43	44	45
188	15	28	29	30	31
188	16	28	29	30	31
188	17	28	29	30	31
189	27	17	8	7	18
190	18	45	46	47	58
191	27	60	46	45	62
192	28	71	70	69	75
192	29	71	70	69	75
193	27	54	49	48	55
194	14	3	4	5	23
195	14	50	49	48	55
196	27	53	49	48	56
197	18	9	8	7	19

Impropers

18	1	3	26	1	4
23	3	11	12	27	10
26	1	43	41	44	65
104	1	3	1	4	26
128	2	41	1	42	43
154	2	1	3	41	2
173	1	10	11	13	9
179	1	10	9	11	13
180	2	41	42	43	1
218	1	43	44	65	41
257	1	3	4	26	1
285	2	1	41	2	3
312	2	1	2	3	41
318	3	11	27	10	12
360	2	41	43	1	42
380	1	43	65	41	44
473	1	10	13	9	11
490	3	11	10	12	27
