Title

80 atoms
79 bonds
144 angles
260 dihedrals
18 impropers

11 atom types
14 bond types
9 angle types
35 dihedral types
3 improper types
-12.50599957 87.49400043 xlo xhi
-4.198999882 95.80100012 ylo yhi
-7.673999786 92.32600021 zlo zhi
0.0 0.0 0.0 xy xz yz

Masses

1	12.01078
2	15.99943
3	14.00672
4	12.01078
5	1.007947
6	1.007947
7	1.007947
8	15.99943
9	12.01078
10	15.99943
11	1.007947


Pair Coeffs

1	0.086879315	3.4806469
2	0.2102061	3.0398122
3	0.16769152	3.206876
4	0.10884061	3.3795318
5	0.014090815	1.1034277
6	0.016409246	2.5832257
7	0.015779483	2.6445434
8	0.16846514	3.0251065
9	0.21	3.3996695
10	0.20947353	2.99716
11	1.2326e-05	0.53453923

Bond Coeffs

1 harmonic	582.698766451	1.225198386222
2 harmonic	492.76746816345	1.381897776683
3 harmonic	279.1350963404	1.454628925034
4 harmonic	352.0565580496	1.450098586273
5 harmonic	505.144496193	1.019481865027
6 harmonic	264.62148576755	1.52190126495
7 harmonic	370.04670688625	1.093899492634
8 harmonic	301.15400723785	1.345741232799
9 harmonic	366.7408841747	1.425895053732
10 harmonic	300.03137914615	1.451203938761
11 harmonic	366.34047229585	1.464762957261
12 harmonic	602.81384337	1.196112346392
13 harmonic	329.96998057905	1.427343958716
14 harmonic	543.5267831885	0.9716763312559


Angle Coeffs

1 harmonic	55.42182150775	117.3465570514
2 harmonic	63.44422595415	115.5071327674
3 harmonic	57.8982893754	126.8062420451
4 harmonic	53.20531626545	116.5475862634
5 harmonic	65.09061609600001	110.3538806181
6 harmonic	201.41175231035	127.4691416191
7 harmonic	48.776492647595	115.6030999533
8 harmonic	55.07882548015	112.8714009681
9 harmonic	33.56981613361	180


Dihedral Coeffs

1 fourier 1	-0.1488678166443	4	180
2 fourier 1	-0.1230328948768	3	180
3 fourier 1	0.2939295466901	2	0
4 fourier 1	-0.3024127022865	1	0
5 fourier 1	0.182238503271	2	0
6 fourier 1	0.02972342374561	3	0
7 fourier 1	1.809047390003	2	180
8 fourier 1	-0.04816277792592	1	0
9 fourier 1	3.101948770557	2	180
10 fourier 1	-0.4252153282372	1	0
11 fourier 1	2.348375642009	2	180
12 fourier 1	1.256156174911	1	0
13 fourier 1	0.9974165607242	2	180
14 fourier 1	0.1155372516788	3	0
15 fourier 1	0.09223874044423	3	0
16 fourier 1	0.3159935921949	2	180
17 fourier 1	0.3247796806857	1	180
18 fourier 1	0.1040663847541	3	0
19 fourier 1	2.779853741805	2	180
20 fourier 1	0.1918272375143	3	0
21 fourier 1	0.9202179876409	1	180
22 fourier 1	0.0473758381877	3	0
23 fourier 1	0.4860993122944	2	180
24 fourier 1	0.8916986138746	1	0
25 fourier 1	1.163809172478	2	180
26 fourier 1	0.1679186987369	1	180
27 fourier 1	0.1911926717192	3	0
28 fourier 1	0.1115525666802	3	0
29 fourier 1	0.3432490222662	1	0
30 fourier 1	0.457973137376	1	0
31 fourier 1	-1.382973039546	1	0
32 fourier 1	0	1	0
33 fourier 1	0.3445382149273	3	0
34 fourier 1	0.1364556373303	1	0
35 fourier 1	0.3026390167484	3	0


Improper Coeffs

1 0.3333333333333333	-1	2
2 0.3666666666666667	-1	2
3 3.5	-1	2


Atoms

1	1	1	0.54478401	-4.6939998	1.331	-0.38600001
2	1	2	-0.674734	-5.1230001	1.428	0.79500002
3	1	3	-0.520042	-3.4430001	0.69599998	-0.66100001
4	1	4	0.032230001	-2.6159999	0.13600001	0.40700001
5	1	4	-0.144688	-1.3329999	-0.479	-0.161
6	1	4	-0.14131799	-0.45199999	-1.053	0.95899999
7	1	4	-0.14131799	0.75700003	-1.8430001	0.42699999
8	1	4	-0.143398	1.749	-1.023	-0.41800001
9	1	4	0.026455	2.3959999	0.12800001	0.36399999
10	1	3	-0.463449	3.4519999	0.76200002	-0.42399999
11	1	1	0.788324	4.2150002	1.858	0.088
12	1	2	-0.600061	3.9979999	2.3099999	1.244
13	1	5	0.32812399	3.668	0.42500001	-1.39
14	1	6	0.060614001	1.6289999	0.89200002	0.61000001
15	1	6	0.060614001	2.832	-0.264	1.309
16	1	7	0.090907	1.249	-0.62900001	-1.3279999
17	1	7	0.090907	2.55	-1.7130001	-0.75999999
18	1	7	0.089622997	1.301	-2.2809999	1.293
19	1	7	0.089622997	0.38800001	-2.6930001	-0.186
20	1	7	0.089622997	-0.114	-0.237	1.633
21	1	7	0.089622997	-1.063	-1.749	1.574
22	1	7	0.090907	-0.77499998	0.31	-0.708
23	1	7	0.090907	-1.602	-1.289	-0.875
24	1	6	0.057007	-3.1960001	-0.64499998	0.94499999
25	1	6	0.057007	-2.352	0.94400001	1.125
26	1	5	0.32154301	-3.1300001	0.63999999	-1.6569999
27	1	8	-0.49546799	4.9559999	2.2869999	-0.49700001
28	1	4	0.114816	5.6090002	1.235	-1.155
29	1	4	-0.135501	6.5780001	0.53500003	-0.19599999
30	1	4	-0.14270499	7.1999998	-0.74000001	-0.792
31	1	4	0.036286999	8.2060003	-0.461	-1.915
32	1	8	-0.161066	7.5349998	-0.17399999	-3.1099999
33	1	6	0.090195999	8.8339996	-1.368	-2.0610001
34	1	6	0.090195999	8.875	0.384	-1.633
35	1	7	0.097685002	7.737	-1.268	0.026000001
36	1	7	0.097685002	6.4029999	-1.424	-1.156
37	1	7	0.096538998	6.0209999	0.24600001	0.722
38	1	7	0.096538998	7.3790002	1.243	0.11
39	1	6	0.090102002	4.8639998	0.51099998	-1.556
40	1	6	0.090102002	6.1719999	1.663	-2.01
41	1	1	0.54478401	-5.2810001	1.734	-1.2
42	1	2	-0.674734	-5.3039999	1.13	-2.3050001
43	1	3	-0.520042	-6.013	2.95	-1.011
44	1	4	0.032230001	-6.8260002	3.556	-2.0639999
45	1	4	-0.144688	-8.1389999	2.786	-2.2379999
46	1	4	-0.14113501	-9.0120001	3.427	-3.3280001
47	1	4	-0.13693701	-10.394	2.7650001	-3.4449999
48	1	4	-0.121122	-10.327	1.36	-4.0650001
49	1	4	0.18556499	-11.726	0.75800002	-4.27
50	1	3	-0.62866801	-12.506	1.5190001	-5.2420001
51	1	9	0.59418201	-12.193	1.558	-6.4749999
52	1	2	-0.45163399	-11.887	1.597	-7.6739998
53	1	6	0.034940999	-11.632	-0.29699999	-4.6100001
54	1	6	0.034940999	-12.269	0.75099999	-3.3010001
55	1	7	0.084524997	-9.7629995	0.68199998	-3.3900001
56	1	7	0.084524997	-9.7910004	1.397	-5.0380001
57	1	7	0.088336997	-10.874	2.7149999	-2.4430001
58	1	7	0.088336997	-11.027	3.415	-4.0879998
59	1	7	0.089622997	-9.1660004	4.4990001	-3.079
60	1	7	0.089622997	-8.4879999	3.381	-4.3080001
61	1	7	0.090907	-7.9089999	1.7359999	-2.513
62	1	7	0.090907	-8.6890001	2.7869999	-1.271
63	1	6	0.057007	-6.2540002	3.572	-3.0179999
64	1	6	0.057007	-7.053	4.6069999	-1.783
65	1	5	0.32154301	-5.9109998	3.4530001	-0.101
66	1	8	-0.161066	8.2410002	0.013	-3.7839999
67	1	4	0.036400001	8.7980003	-1.225	-4.1350002
68	1	4	-0.13696501	9.7679996	-1.6950001	-3.046
69	1	4	-0.16401701	10.284	-3.1259999	-3.2750001
70	1	4	0.089909002	11.25	-3.2449999	-4.4580002
71	1	10	-0.67789799	10.542	-3.2579999	-5.6659999
72	1	11	0.38817999	11.223	-3.319	-6.3850002
73	1	6	0.081896998	11.816	-4.1989999	-4.3600001
74	1	6	0.081896998	11.98	-2.405	-4.447
75	1	7	0.100149	10.827	-3.4400001	-2.3559999
76	1	7	0.100149	9.4309998	-3.8269999	-3.4059999
77	1	7	0.097861998	9.2390003	-1.674	-2.0680001
78	1	7	0.097861998	10.624	-0.98799998	-2.977
79	1	6	0.090195999	7.9920001	-1.979	-4.2930002
80	1	6	0.090195999	9.3439999	-1.095	-5.092

Bonds

1	1	1	2
2	2	1	3
3	3	1	41
4	4	3	4
5	5	3	26
6	6	4	5
7	7	4	24
8	7	4	25
9	6	5	6
10	7	5	22
11	7	5	23
12	6	6	7
13	7	6	20
14	7	6	21
15	6	7	8
16	7	7	18
17	7	7	19
18	6	8	9
19	7	8	16
20	7	8	17
21	4	9	10
22	7	9	14
23	7	9	15
24	2	10	11
25	5	10	13
26	1	11	12
27	8	11	27
28	9	27	28
29	6	28	29
30	7	28	39
31	7	28	40
32	6	29	30
33	7	29	37
34	7	29	38
35	6	30	31
36	7	30	35
37	7	30	36
38	9	31	32
39	7	31	33
40	7	31	34
41	10	32	66
42	1	41	42
43	2	41	43
44	4	43	44
45	5	43	65
46	6	44	45
47	7	44	63
48	7	44	64
49	6	45	46
50	7	45	61
51	7	45	62
52	6	46	47
53	7	46	59
54	7	46	60
55	6	47	48
56	7	47	57
57	7	47	58
58	6	48	49
59	7	48	55
60	7	48	56
61	11	49	50
62	7	49	53
63	7	49	54
64	12	50	51
65	1	51	52
66	9	66	67
67	6	67	68
68	7	67	79
69	7	67	80
70	6	68	69
71	7	68	77
72	7	68	78
73	6	69	70
74	7	69	75
75	7	69	76
76	13	70	71
77	7	70	73
78	7	70	74
79	14	71	72

Angles

1	4	6	5	23
2	7	14	9	15
3	4	48	47	58
4	4	6	7	8
5	2	41	43	65
6	4	43	44	63
7	4	10	9	14
8	5	11	27	28
9	3	2	1	3
10	2	11	10	13
11	4	43	44	64
12	4	30	29	37
13	4	32	31	33
14	7	73	70	74
15	4	6	7	18
16	4	49	48	55
17	4	46	47	57
18	4	31	30	35
19	4	3	4	24
20	4	68	67	79
21	7	37	29	38
22	4	67	68	77
23	4	69	70	74
24	4	44	45	46
25	4	68	69	75
26	4	5	6	7
27	4	30	29	38
28	4	71	70	74
29	4	7	8	16
30	7	77	68	78
31	4	28	29	37
32	4	44	45	62
33	4	5	6	20
34	2	1	3	26
35	4	47	48	55
36	4	45	46	59
37	4	30	31	34
38	4	3	4	25
39	5	31	32	66
40	4	27	28	39
41	4	68	67	80
42	7	24	4	25
43	4	3	4	5
44	7	57	47	58
45	4	67	68	69
46	5	70	71	72
47	4	68	69	76
48	4	48	49	53
49	4	5	6	21
50	4	69	68	77
51	2	44	43	65
52	4	8	7	18
53	4	69	70	71
54	2	9	10	13
55	4	5	4	24
56	4	8	9	14
57	7	59	46	60
58	7	79	67	80
59	4	10	9	15
60	3	10	11	27
61	7	39	28	40
62	6	12	11	27
63	3	42	41	43
64	4	45	46	47
65	4	46	45	61
66	3	3	1	41
67	3	1	41	42
68	4	70	69	75
69	4	69	68	78
70	4	28	29	30
71	4	9	8	16
72	4	4	5	22
73	4	45	44	63
74	4	43	44	45
75	4	32	31	34
76	7	18	7	19
77	4	48	49	50
78	4	5	4	25
79	4	6	7	19
80	4	50	49	53
81	4	29	28	39
82	4	49	48	56
83	4	46	47	58
84	4	8	9	10
85	4	31	30	36
86	3	2	1	41
87	1	1	3	4
88	4	46	45	62
89	4	29	30	35
90	4	70	69	76
91	4	67	68	78
92	4	66	67	79
93	7	16	8	17
94	4	4	5	23
95	4	45	44	64
96	4	7	8	17
97	4	50	49	54
98	4	28	29	38
99	4	29	30	31
100	4	47	48	56
101	4	4	5	6
102	4	45	46	60
103	1	41	43	44
104	4	27	28	40
105	7	61	45	62
106	4	66	67	80
107	7	35	30	36
108	4	48	49	54
109	2	4	3	26
110	4	8	7	19
111	4	7	6	20
112	7	20	6	21
113	7	53	49	54
114	4	47	46	59
115	3	10	11	12
116	7	75	69	76
117	4	8	9	15
118	7	63	44	64
119	4	30	31	32
120	3	1	41	43
121	7	33	31	34
122	4	9	8	17
123	4	47	48	49
124	7	22	5	23
125	9	50	51	52
126	4	66	67	68
127	4	6	5	22
128	4	7	6	21
129	5	32	66	67
130	4	48	47	57
131	4	69	70	73
132	4	47	46	60
133	4	71	70	73
134	4	29	28	40
135	4	44	45	61
136	4	7	8	9
137	4	30	31	33
138	4	46	47	48
139	8	49	50	51
140	4	68	69	70
141	7	55	48	56
142	1	9	10	11
143	4	29	30	36
144	4	27	28	29

Dihedrals

1	28	32	31	30	36
1	29	32	31	30	36
2	11	42	41	43	65
2	12	42	41	43	65
3	27	18	7	6	20
4	18	45	46	47	58
5	22	32	66	67	79
6	27	76	69	68	78
7	18	30	29	28	40
8	18	67	68	69	76
9	27	23	5	4	25
10	15	5	6	7	8
10	16	5	6	7	8
10	17	5	6	7	8
11	22	34	31	32	66
12	14	3	4	5	22
13	18	9	8	7	18
14	27	55	48	47	57
15	27	60	46	45	61
16	27	77	68	67	79
17	27	53	49	48	55
18	14	66	67	68	69
19	27	75	69	68	78
20	27	54	49	48	55
21	33	69	70	71	72
21	34	69	70	71	72
22	22	32	66	67	80
23	31	51	50	49	53
24	27	16	8	7	18
25	18	48	47	46	59
26	22	30	31	32	66
27	18	28	29	30	36
28	32	49	50	51	52
29	18	9	8	7	19
30	5	13	10	9	15
30	6	13	10	9	15
31	25	12	11	27	28
31	26	12	11	27	28
32	27	55	48	47	58
33	31	48	49	50	51
34	9	2	1	3	4
34	10	2	1	3	4
35	27	74	70	69	75
36	27	78	68	67	79
37	14	10	9	8	17
38	13	2	1	41	43
39	27	36	30	29	37
40	5	8	9	10	13
40	6	8	9	10	13
41	7	9	10	11	27
41	8	9	10	11	27
42	27	20	6	5	22
43	27	54	49	48	56
44	18	5	6	7	18
45	7	1	41	43	44
45	8	1	41	43	44
46	18	47	48	49	53
47	31	51	50	49	54
48	28	66	67	68	77
48	29	66	67	68	77
49	18	70	69	68	78
50	18	7	8	9	14
51	27	33	31	30	36
52	14	43	44	45	61
53	27	37	29	28	40
54	27	58	47	46	59
55	18	46	45	44	64
56	5	64	44	43	65
56	6	64	44	43	65
57	18	8	7	6	21
58	27	62	45	44	63
59	7	9	10	11	12
59	8	9	10	11	12
60	18	31	30	29	37
61	22	11	27	28	40
62	27	61	45	44	63
63	15	44	45	46	47
63	16	44	45	46	47
63	17	44	45	46	47
64	22	32	66	67	68
65	7	1	41	43	65
65	8	1	41	43	65
66	27	56	48	47	57
67	18	68	69	70	73
68	18	6	5	4	24
69	27	21	6	5	22
70	27	22	5	4	24
71	27	59	46	45	61
72	18	46	47	48	55
73	28	66	67	68	78
73	29	66	67	68	78
74	5	25	4	3	26
74	6	25	4	3	26
75	18	29	30	31	33
76	18	69	68	67	80
77	18	6	7	8	16
78	14	7	8	9	10
79	27	62	45	44	64
80	27	18	7	6	21
81	18	44	45	46	59
82	27	15	9	8	16
83	28	27	28	29	37
83	29	27	28	29	37
84	30	31	32	66	67
85	18	31	30	29	38
86	15	4	5	6	7
86	16	4	5	6	7
86	17	4	5	6	7
87	27	17	8	7	18
88	14	47	48	49	50
89	15	45	46	47	48
89	16	45	46	47	48
89	17	45	46	47	48
90	19	10	11	27	28
91	13	3	1	41	42
92	14	3	4	5	23
93	18	4	5	6	20
94	27	56	48	47	58
95	27	60	46	45	62
96	7	13	10	11	27
96	8	13	10	11	27
97	28	71	70	69	75
97	29	71	70	69	75
98	14	50	49	48	55
99	5	41	43	44	63
99	6	41	43	44	63
100	27	22	5	4	25
101	27	77	68	67	80
102	27	53	49	48	56
103	14	3	4	5	6
104	18	46	47	48	56
105	27	59	46	45	62
106	35	72	71	70	73
107	18	7	6	5	22
108	27	73	70	69	75
109	1	8	9	10	11
109	2	8	9	10	11
109	3	8	9	10	11
109	4	8	9	10	11
110	18	47	46	45	61
111	5	45	44	43	65
111	6	45	44	43	65
112	27	34	31	30	35
113	5	11	10	9	14
113	6	11	10	9	14
114	27	17	8	7	19
115	27	16	8	7	19
116	18	48	47	46	60
117	13	3	1	41	43
118	18	4	5	6	21
119	27	74	70	69	76
120	28	71	70	69	76
120	29	71	70	69	76
121	27	78	68	67	80
122	27	57	47	46	59
123	18	49	48	47	57
124	5	1	3	4	24
124	6	1	3	4	24
125	27	36	30	29	38
126	27	73	70	69	76
127	20	11	27	28	29
127	21	11	27	28	29
128	27	20	6	5	23
129	18	47	46	45	62
130	27	34	31	30	36
131	14	43	44	45	46
132	18	5	6	7	19
133	18	47	48	49	54
134	27	38	29	28	39
135	14	27	28	29	30
136	18	7	8	9	15
137	11	2	1	3	26
137	12	2	1	3	26
138	27	19	7	6	20
139	27	35	30	29	37
140	14	43	44	45	62
141	15	67	68	69	70
141	16	67	68	69	70
141	17	67	68	69	70
142	27	58	47	46	60
143	27	57	47	46	60
144	18	45	46	47	57
145	5	1	3	4	25
145	6	1	3	4	25
146	27	61	45	44	64
147	5	63	44	43	65
147	6	63	44	43	65
148	7	26	3	1	41
148	8	26	3	1	41
149	7	4	3	1	41
149	8	4	3	1	41
150	9	42	41	43	44
150	10	42	41	43	44
151	27	23	5	4	24
152	18	67	68	69	75
153	27	76	69	68	77
154	1	1	3	4	5
154	2	1	3	4	5
154	3	1	3	4	5
154	4	1	3	4	5
155	18	6	5	4	25
156	18	68	69	70	74
157	27	21	6	5	23
158	22	33	31	32	66
159	27	19	7	6	21
160	18	29	30	31	34
161	27	35	30	29	38
162	18	6	7	8	17
163	27	75	69	68	77
164	15	6	7	8	9
164	16	6	7	8	9
164	17	6	7	8	9
165	18	44	45	46	60
166	27	15	9	8	17
167	28	27	28	29	38
167	29	27	28	29	38
168	18	28	29	30	35
169	5	13	10	9	14
169	6	13	10	9	14
170	14	50	49	48	56
171	27	14	9	8	16
172	5	41	43	44	64
172	6	41	43	44	64
173	14	10	9	8	16
174	13	2	1	41	42
175	35	72	71	70	74
176	18	7	6	5	23
177	15	28	29	30	31
177	16	28	29	30	31
177	17	28	29	30	31
178	14	68	69	70	71
179	5	11	10	9	15
179	6	11	10	9	15
180	5	5	4	3	26
180	6	5	4	3	26
181	18	70	69	68	77
182	27	33	31	30	35
183	28	32	31	30	35
183	29	32	31	30	35
184	27	37	29	28	39
185	18	46	45	44	63
186	18	8	7	6	20
187	27	14	9	8	17
188	18	49	48	47	58
189	22	11	27	28	39
190	18	30	29	28	39
191	15	46	47	48	49
191	16	46	47	48	49
191	17	46	47	48	49
192	1	41	43	44	45
192	2	41	43	44	45
192	3	41	43	44	45
192	4	41	43	44	45
193	5	24	4	3	26
193	6	24	4	3	26
194	27	38	29	28	40
195	23	12	11	10	13
195	24	12	11	10	13
196	14	29	30	31	32
197	18	69	68	67	79

Impropers

31	1	10	13	9	11
33	2	41	1	42	43
41	1	3	26	1	4
65	1	10	11	13	9
78	1	43	65	41	44
92	3	11	12	27	10
126	2	41	42	43	1
165	2	1	3	41	2
169	3	11	27	10	12
235	3	11	10	12	27
241	2	41	43	1	42
267	1	3	1	4	26
287	1	43	44	65	41
299	2	1	2	3	41
345	1	10	9	11	13
353	2	1	41	2	3
371	1	3	4	26	1
506	1	43	41	44	65
