Title

47 atoms
48 bonds
77 angles
117 dihedrals
48 impropers

8 atom types
12 bond types
6 angle types
20 dihedral types
2 improper types
-10.11999989 89.88000011 xlo xhi
-1.483999968 98.51600003 ylo yhi
-4.697999954 95.30200005 zlo zhi
0.0 0.0 0.0 xy xz yz

Masses

1	15.99943
2	12.01078
3	1.007947
4	12.01078
5	15.99943
6	1.007947
7	15.99943
8	1.007947


Pair Coeffs

1	0.16846514	3.0251065
2	0.10884061	3.3795318
3	0.016409246	2.5832257
4	0.086879315	3.4806469
5	0.2102061	3.0398122
6	0.015611343	2.5725815
7	0.20947353	2.99716
8	1.2326e-05	0.53453923

Bond Coeffs

1 harmonic	366.7408841747	1.425895053732
2 harmonic	300.03137914615	1.451203938761
3 harmonic	264.62148576755	1.52190126495
4 harmonic	370.04670688625	1.093899492634
5 harmonic	301.15400723785	1.345741232799
6 harmonic	582.698766451	1.225198386222
7 harmonic	279.1350963404	1.454628925034
8 harmonic	360.7852444772	1.387193227181
9 harmonic	397.2545789619	1.085358495916
10 harmonic	329.96998057905	1.427343958716
11 harmonic	543.5267831885	0.9716763312559
12 harmonic	385.7604595587	1.369745182308


Angle Coeffs

1 harmonic	53.20531626545	116.5475862634
2 harmonic	65.09061609600001	110.3538806181
3 harmonic	201.41175231035	127.4691416191
4 harmonic	57.8982893754	126.8062420451
5 harmonic	48.776492647595	115.6030999533
6 harmonic	34.066775159195	129.1835929926


Dihedral Coeffs

1 fourier 1	-0.0309670556842	3	0
2 fourier 1	0.4598191477945	2	0
3 fourier 1	0.1115525666802	3	0
4 fourier 1	0.3432490222662	1	0
5 fourier 1	0.0473758381877	3	0
6 fourier 1	0.457973137376	1	0
7 fourier 1	0.1918272375143	3	0
8 fourier 1	0.9202179876409	1	180
9 fourier 1	1.163809172478	2	180
10 fourier 1	0.1679186987369	1	180
11 fourier 1	2.779853741805	2	180
12 fourier 1	0.9974165607242	2	180
13 fourier 1	0.1911926717192	3	0
14 fourier 1	3.661930099076	2	180
15 fourier 1	0.3445382149273	3	0
16 fourier 1	0.1364556373303	1	0
17 fourier 1	0.3026390167484	3	0
18 fourier 1	2.687457892086	2	180
19 fourier 1	2.772607909663	2	180
20 fourier 1	0.09692684957115	1	0


Improper Coeffs

1 3.5	-1	2
2 0.3666666666666667	-1	2


Atoms

1	1	1	-0.136787	1.576	-0.336	0.85699999
2	1	2	0.051915001	0.63599998	-0.419	-0.17900001
3	1	2	0.15698101	-0.71899998	0.11	0.28999999
4	1	1	-0.50269002	-1.675	-0.035999998	-0.72399998
5	1	3	0.089729004	-1.051	-0.46900001	1.177
6	1	3	0.089729004	-0.63099998	1.1799999	0.58899999
7	1	3	0.097276002	0.52999997	-1.484	-0.477
8	1	3	0.097276002	0.98699999	0.154	-1.068
9	1	4	0.79180801	-1.49	0.71499997	-1.4170001
10	1	5	-0.55548799	-0.29699999	0.99199998	-1.71
11	1	4	-0.30292699	-2.6110001	1.4400001	-2.0420001
12	1	4	-0.101251	-3.8770001	1.131	-1.7180001
13	1	6	0.215078	-4.0910001	0.35100001	-0.99699998
14	1	4	-0.05762	-5.006	1.853	-2.3410001
15	1	6	0.19802099	-6.0170002	1.5829999	-2.0599999
16	1	4	-0.364517	-4.7789998	2.8269999	-3.2390001
17	1	4	0.582856	-5.9109998	3.5420001	-3.855
18	1	5	-0.58360499	-5.7140002	4.4559999	-4.698
19	1	4	-0.05762	-3.3800001	3.1689999	-3.599
20	1	6	0.19802099	-3.177	3.95	-4.3200002
21	1	4	-0.101251	-2.3570001	2.5150001	-3.0339999
22	1	6	0.215078	-1.3430001	2.7780001	-3.309
23	1	1	-0.131128	1.845	0.61799997	0.92000002
24	1	2	0.023863001	3.148	0.70099998	0.41100001
25	1	2	0.095882997	4.1529999	0.17200001	1.434
26	1	7	-0.67769498	5.461	0.31799999	0.95200002
27	1	8	0.39640701	5.5970001	-0.40000001	0.27900001
28	1	3	0.095099002	4.0549998	0.75199997	2.3759999
29	1	3	0.095099002	3.941	-0.89700001	1.663
30	1	3	0.097969003	3.3759999	1.766	0.192
31	1	3	0.097969003	3.23	0.12800001	-0.54100001
32	1	4	0.582856	-6.928	3.286	-3.5869999
33	1	5	-0.58360499	-7.7550001	3.0350001	-4.5040002
34	1	4	-0.364517	-7.3330002	3.2349999	-2.171
35	1	4	-0.05762	-6.4390001	3.506	-1.205
36	1	6	0.19802099	-5.4159999	3.7639999	-1.454
37	1	4	-0.0986	-6.836	3.457	0.21699999
38	1	6	0.215078	-6.0890002	3.681	0.96899998
39	1	4	-0.292099	-8.0979996	3.141	0.565
40	1	4	0.83022398	-8.5109997	3.0880001	1.984
41	1	5	-0.53001499	-7.6859999	3.339	2.904
42	1	7	-0.67446297	-9.8219995	2.7579999	2.316
43	1	8	0.404385	-10.12	2.7179999	3.2839999
44	1	4	-0.0986	-9.0839996	2.842	-0.50400001
45	1	6	0.215078	-10.105	2.585	-0.25
46	1	4	-0.05762	-8.724	2.8859999	-1.793
47	1	6	0.19802099	-9.4589996	2.665	-2.556

Bonds

1	1	1	2
2	2	1	23
3	3	2	3
4	4	2	7
5	4	2	8
6	1	3	4
7	4	3	5
8	4	3	6
9	5	4	9
10	6	9	10
11	7	9	11
12	8	11	12
13	8	11	21
14	9	12	13
15	8	12	14
16	9	14	15
17	8	14	16
18	7	16	17
19	8	16	19
20	6	17	18
21	7	17	32
22	9	19	20
23	8	19	21
24	9	21	22
25	1	23	24
26	3	24	25
27	4	24	30
28	4	24	31
29	10	25	26
30	4	25	28
31	4	25	29
32	11	26	27
33	6	32	33
34	7	32	34
35	8	34	35
36	8	34	46
37	9	35	36
38	8	35	37
39	9	37	38
40	8	37	39
41	7	39	40
42	8	39	44
43	6	40	41
44	12	40	42
45	11	42	43
46	9	44	45
47	8	44	46
48	9	46	47

Angles

1	6	11	21	22
2	4	17	16	19
3	1	3	2	8
4	4	35	34	46
5	6	45	44	46
6	4	12	14	16
7	3	4	9	10
8	4	9	11	12
9	6	34	46	47
10	1	23	24	30
11	4	32	34	46
12	1	4	3	6
13	3	41	40	42
14	6	39	44	45
15	4	11	21	19
16	4	14	16	19
17	1	24	25	28
18	1	23	24	31
19	4	40	39	44
20	4	12	11	21
21	4	39	44	46
22	4	17	32	33
23	4	34	46	44
24	4	39	40	41
25	1	1	2	8
26	4	10	9	11
27	2	40	42	43
28	4	33	32	34
29	1	24	25	29
30	4	16	17	32
31	1	25	24	30
32	6	15	14	16
33	1	2	3	5
34	4	4	9	11
35	4	32	34	35
36	6	35	37	38
37	6	11	12	13
38	4	37	39	44
39	5	5	3	6
40	6	12	14	15
41	1	26	25	28
42	1	25	24	31
43	4	37	39	40
44	2	25	26	27
45	4	35	37	39
46	6	16	19	20
47	4	11	12	14
48	1	1	2	3
49	2	2	1	23
50	5	7	2	8
51	1	26	25	29
52	1	4	3	5
53	4	16	19	21
54	4	17	32	34
55	4	9	11	21
56	4	39	40	42
57	1	3	2	7
58	5	28	25	29
59	4	18	17	32
60	6	38	37	39
61	4	14	16	17
62	1	24	25	26
63	6	13	12	14
64	6	44	46	47
65	4	16	17	18
66	1	23	24	25
67	2	3	4	9
68	1	2	3	6
69	1	1	2	7
70	6	19	21	22
71	6	34	35	36
72	6	20	19	21
73	6	36	35	37
74	5	30	24	31
75	1	2	3	4
76	2	1	23	24
77	4	34	35	37

Dihedrals

1	3	26	25	24	31
1	4	26	25	24	31
2	5	8	2	1	23
3	13	6	3	2	7
4	13	5	3	2	8
5	12	41	40	39	44
6	13	29	25	24	31
7	12	33	32	34	46
8	13	28	25	24	31
9	14	45	44	46	47
10	14	12	14	16	17
11	14	36	35	37	39
12	12	42	40	39	44
13	12	4	9	11	21
14	14	11	21	19	20
15	13	6	3	2	8
16	12	14	16	17	18
17	19	41	40	42	43
17	20	41	40	42	43
18	14	11	12	14	15
19	12	17	32	34	35
20	14	9	11	12	13
21	14	35	37	39	44
22	18	39	40	42	43
23	14	34	46	44	45
24	14	11	21	19	16
25	3	1	2	3	5
25	4	1	2	3	5
26	3	23	24	25	28
26	4	23	24	25	28
27	14	35	37	39	40
28	14	40	39	44	45
29	5	1	23	24	30
30	14	9	11	12	14
31	14	14	12	11	21
32	3	4	3	2	8
32	4	4	3	2	8
33	14	14	16	19	20
34	14	40	39	44	46
35	12	33	32	34	35
36	17	27	26	25	29
37	14	32	34	46	47
38	12	37	39	40	41
39	14	32	34	35	36
40	9	3	4	9	10
40	10	3	4	9	10
41	12	16	17	32	33
42	14	15	14	16	19
43	14	36	35	34	46
44	14	13	12	14	15
45	15	24	25	26	27
45	16	24	25	26	27
46	12	37	39	40	42
47	5	6	3	4	9
48	12	10	9	11	21
49	14	32	34	35	37
50	14	34	46	44	39
51	12	16	17	32	34
52	6	2	1	23	24
53	12	19	16	17	32
54	14	32	34	46	44
55	14	11	12	14	16
56	14	34	35	37	38
57	3	23	24	25	29
57	4	23	24	25	29
58	14	38	37	39	40
59	14	12	14	16	19
60	12	4	9	11	12
61	5	1	23	24	31
62	14	17	16	19	20
63	13	5	3	2	7
64	14	14	16	19	21
65	12	18	17	32	33
66	12	14	16	17	32
67	11	3	4	9	11
68	14	37	39	44	45
69	14	15	14	16	17
70	13	28	25	24	30
71	3	1	2	3	6
71	4	1	2	3	6
72	1	23	24	25	26
72	2	23	24	25	26
73	12	18	17	16	19
74	14	12	11	21	22
75	14	36	35	37	38
76	14	17	16	19	21
77	14	35	34	46	47
78	14	9	11	21	22
79	14	38	37	39	44
80	12	18	17	32	34
81	14	16	19	21	22
82	7	2	3	4	9
82	8	2	3	4	9
83	14	37	39	44	46
84	1	1	2	3	4
84	2	1	2	3	4
85	5	5	3	4	9
86	5	3	2	1	23
87	14	13	12	14	16
88	12	17	32	34	46
89	14	12	11	21	19
90	3	26	25	24	30
90	4	26	25	24	30
91	14	37	35	34	46
92	5	1	23	24	25
93	14	13	12	11	21
94	14	35	34	46	44
95	14	39	44	46	47
96	14	34	35	37	39
97	14	9	11	21	19
98	3	4	3	2	7
98	4	4	3	2	7
99	12	10	9	11	12
100	5	7	2	1	23
101	13	29	25	24	30
102	14	20	19	21	22
103	17	27	26	25	28

Impropers

12	2	46	47	34	44
13	2	21	22	11	19
14	2	39	40	44	37
18	2	12	14	11	13
19	2	44	46	39	45
35	2	11	21	9	12
39	1	40	41	42	39
40	2	44	45	46	39
46	2	12	13	14	11
47	2	12	11	13	14
49	2	17	18	32	16
56	2	11	9	12	21
58	2	32	17	33	34
62	1	40	39	41	42
64	1	9	4	10	11
66	2	17	16	18	32
68	2	34	46	32	35
71	2	32	34	17	33
72	2	14	15	16	12
77	2	11	12	21	9
79	2	16	19	14	17
81	2	19	16	20	21
87	2	39	44	37	40
91	1	9	11	4	10
95	2	16	14	17	19
98	2	37	38	39	35
102	1	40	42	39	41
103	2	21	19	22	11
105	2	35	37	34	36
108	2	19	20	21	16
110	2	44	39	45	46
113	2	37	35	38	39
120	2	46	34	44	47
123	2	17	32	16	18
126	2	35	34	36	37
130	2	37	39	35	38
134	2	16	17	19	14
139	2	14	12	15	16
144	2	34	32	35	46
156	2	46	44	47	34
157	2	14	16	12	15
160	1	9	10	11	4
161	2	35	36	37	34
163	2	34	35	46	32
167	2	21	11	19	22
171	2	32	33	34	17
183	2	39	37	40	44
186	2	19	21	16	20
