Title

522 atoms
521 bonds
986 angles
1851 dihedrals
102 impropers

11 atom types
12 bond types
9 angle types
29 dihedral types
2 improper types
-76.76699829 23.23300171 xlo xhi
-64.48999786 35.51000214 ylo yhi
-70.58100128 29.41899872 zlo zhi
0.0 0.0 0.0 xy xz yz

Masses

1	12.01078
2	15.99943
3	14.00672
4	12.01078
5	1.007947
6	1.007947
7	1.007947
8	15.99943
9	15.99943
10	1.007947
11	12.01078


Pair Coeffs

1	0.086879315	3.4806469
2	0.2102061	3.0398122
3	0.16769152	3.206876
4	0.10884061	3.3795318
5	0.014090815	1.1034277
6	0.016409246	2.5832257
7	0.015779483	2.6445434
8	0.16846514	3.0251065
9	0.20947353	2.99716
10	1.2326e-05	0.53453923
11	0.21	3.3996695

Bond Coeffs

1 harmonic	582.698766451	1.225198386222
2 harmonic	492.76746816345	1.381897776683
3 harmonic	301.15400723785	1.345741232799
4 harmonic	352.0565580496	1.450098586273
5 harmonic	505.144496193	1.019481865027
6 harmonic	264.62148576755	1.52190126495
7 harmonic	370.04670688625	1.093899492634
8 harmonic	366.7408841747	1.425895053732
9 harmonic	329.96998057905	1.427343958716
10 harmonic	543.5267831885	0.9716763312559
11 harmonic	366.34047229585	1.464762957261
12 harmonic	602.81384337	1.196112346392


Angle Coeffs

1 harmonic	55.42182150775	117.3465570514
2 harmonic	63.44422595415	115.5071327674
3 harmonic	65.09061609600001	110.3538806181
4 harmonic	57.8982893754	126.8062420451
5 harmonic	201.41175231035	127.4691416191
6 harmonic	53.20531626545	116.5475862634
7 harmonic	48.776492647595	115.6030999533
8 harmonic	55.07882548015	112.8714009681
9 harmonic	33.56981613361	180


Dihedral Coeffs

1 fourier 1	-0.1488678166443	4	180
2 fourier 1	-0.1230328948768	3	180
3 fourier 1	0.2939295466901	2	0
4 fourier 1	-0.3024127022865	1	0
5 fourier 1	0.182238503271	2	0
6 fourier 1	0.02972342374561	3	0
7 fourier 1	0.1918272375143	3	0
8 fourier 1	0.9202179876409	1	180
9 fourier 1	0.0473758381877	3	0
10 fourier 1	1.809047390003	2	180
11 fourier 1	-0.04816277792592	1	0
12 fourier 1	0.4860993122944	2	180
13 fourier 1	0.8916986138746	1	0
14 fourier 1	1.163809172478	2	180
15 fourier 1	0.1679186987369	1	180
16 fourier 1	2.779853741805	2	180
17 fourier 1	0.1155372516788	3	0
18 fourier 1	0.09223874044423	3	0
19 fourier 1	0.3159935921949	2	180
20 fourier 1	0.3247796806857	1	180
21 fourier 1	0.1040663847541	3	0
22 fourier 1	0.1911926717192	3	0
23 fourier 1	0.1115525666802	3	0
24 fourier 1	0.3432490222662	1	0
25 fourier 1	0.3445382149273	3	0
26 fourier 1	0.1364556373303	1	0
27 fourier 1	0.3026390167484	3	0
28 fourier 1	-1.382973039546	1	0
29 fourier 1	0	1	0


Improper Coeffs

1 0.3333333333333333	-1	2
2 3.5	-1	2


Atoms

1	1	1	0.78165698	4.4159999	1.058	0.071999997
2	1	2	-0.63132697	4.3740001	0.90700001	1.322
3	1	3	-0.47126201	3.779	0.123	-0.80400002
4	1	4	0.022368999	3.039	-1.041	-0.31799999
5	1	4	-0.14668199	1.682	-0.63499999	0.26899999
6	1	4	-0.14448901	0.74800003	-0.048	-0.80199999
7	1	4	-0.14448901	-0.58099997	0.456	-0.21699999
8	1	4	-0.14668199	-1.501	-0.69	0.236
9	1	4	0.022368999	-2.8759999	-0.177	0.68300003
10	1	3	-0.47126201	-3.6760001	0.28200001	-0.454
11	1	1	0.78165698	-4.9790001	0.84399998	-0.27399999
12	1	2	-0.63132697	-5.4749999	0.96799999	0.87699997
13	1	5	0.320701	3.8989999	0.249	-1.834
14	1	6	0.049068	2.8789999	-1.7539999	-1.1569999
15	1	6	0.049068	3.6400001	-1.568	0.45500001
16	1	7	0.082479	1.832	0.102	1.087
17	1	7	0.082479	1.2180001	-1.543	0.70899999
18	1	7	0.081436001	0.54900002	-0.80699998	-1.59
19	1	7	0.081436001	1.253	0.81599998	-1.288
20	1	7	0.081436001	-1.095	1.048	-1.005
21	1	7	0.081436001	-0.38100001	1.14	0.63599998
22	1	7	0.082479	-1.036	-1.214	1.099
23	1	7	0.082479	-1.63	-1.4299999	-0.58399999
24	1	6	0.049068	-2.7479999	0.653	1.4119999
25	1	6	0.049068	-3.4170001	-1.003	1.192
26	1	5	0.320701	-3.3139999	0.191	-1.4299999
27	1	8	-0.502038	-5.5240002	1.153	-1.101
28	1	4	0.111798	-6.4549999	2.0840001	-0.625
29	1	4	-0.140751	-7.3210001	2.598	-1.776
30	1	4	-0.14173999	-8.1780005	1.477	-2.3870001
31	1	4	-0.142914	-9.1709995	1.997	-3.437
32	1	4	-0.14158501	-8.4799995	2.447	-4.7340002
33	1	4	-0.14158501	-9.5120001	2.8340001	-5.8000002
34	1	4	-0.142914	-8.8210001	3.283	-7.0970001
35	1	4	-0.14173999	-9.8140001	3.806	-8.1470003
36	1	4	-0.140751	-10.663	2.6849999	-8.7679996
37	1	4	0.111798	-11.566	3.2130001	-9.8879995
38	1	8	-0.502038	-10.804	3.6960001	-10.962
39	1	6	0.079181999	-7.0999999	1.617	0.154
40	1	6	0.079181999	-5.9190001	2.9460001	-0.168
41	1	7	0.086277001	-7.9850001	3.401	-1.387
42	1	7	0.086277001	-6.6570001	3.039	-2.549
43	1	7	0.082418002	-7.5229998	0.70200002	-2.842
44	1	7	0.082418002	-8.7620001	0.99000001	-1.576
45	1	7	0.080688998	-9.8789997	1.173	-3.675
46	1	7	0.080688998	-9.7629995	2.8369999	-3.013
47	1	7	0.080688998	-7.8460002	1.619	-5.1220002
48	1	7	0.080688998	-7.8319998	3.3239999	-4.526
49	1	7	0.080688998	-10.16	1.956	-6.0079999
50	1	7	0.080688998	-10.146	3.661	-5.4130001
51	1	7	0.080688998	-8.1120005	4.1059999	-6.8579998
52	1	7	0.080688998	-8.2299995	2.4419999	-7.5219998
53	1	7	0.082418002	-10.475	4.5739999	-7.691
54	1	7	0.082418002	-9.2270002	4.302	-8.9510002
55	1	7	0.086277001	-10.003	1.888	-9.1750002
56	1	7	0.086277001	-11.313	2.2320001	-7.9889998
57	1	6	0.079181999	-12.244	2.4000001	-10.235
58	1	6	0.079181999	-12.203	4.0359998	-9.4989996
59	1	1	0.78165698	-10.437	2.865	-11.463
60	1	2	-0.63132697	-9.3280001	2.375	-11.119
61	1	3	-0.47126201	-11.191	2.296	-12.538
62	1	4	0.022368999	-10.741	1.124	-13.289
63	1	4	-0.14668199	-10.903	-0.161	-12.467
64	1	4	-0.14448901	-12.382	-0.47299999	-12.181
65	1	4	-0.14448901	-12.563	-1.7029999	-11.277
66	1	4	-0.14668199	-12.22	-3.02	-11.993
67	1	4	0.022368999	-12.542	-4.243	-11.124
68	1	3	-0.47126201	-13.986	-4.4530001	-11.002
69	1	1	0.78165698	-14.524	-5.5100002	-10.204
70	1	2	-0.63132697	-13.765	-6.2909999	-9.5699997
71	1	5	0.320701	-12.07	2.776	-12.834
72	1	6	0.049068	-11.33	1.038	-14.228
73	1	6	0.049068	-9.6750002	1.253	-13.576
74	1	7	0.082479	-10.344	-0.068999998	-11.512
75	1	7	0.082479	-10.454	-0.99400002	-13.048
76	1	7	0.081436001	-12.929	-0.625	-13.137
77	1	7	0.081436001	-12.843	0.39700001	-11.665
78	1	7	0.081436001	-13.625	-1.729	-10.95
79	1	7	0.081436001	-11.936	-1.594	-10.365
80	1	7	0.082479	-11.133	-3.0420001	-12.22
81	1	7	0.082479	-12.773	-3.0929999	-12.955
82	1	6	0.049068	-12.095	-4.1149998	-10.114
83	1	6	0.049068	-12.087	-5.1430001	-11.591
84	1	5	0.320701	-14.658	-3.839	-11.516
85	1	8	-0.502038	-15.551	-5.6370001	-10.144
86	1	4	0.111798	-15.786	-6.3460002	-8.9580002
87	1	4	-0.140751	-17.285	-6.5939999	-8.7810001
88	1	4	-0.14173999	-17.846001	-7.5009999	-9.8879995
89	1	4	-0.142914	-19.311001	-7.8940001	-9.6459999
90	1	4	-0.14158501	-20.280001	-6.7189999	-9.8450003
91	1	4	-0.14158501	-21.737	-7.1810002	-9.7229996
92	1	4	-0.142914	-22.705999	-6.0050001	-9.9230003
93	1	4	-0.14173999	-24.172001	-6.3959999	-9.6780005
94	1	4	-0.140751	-24.738001	-7.2950001	-10.789
95	1	4	0.111798	-26.229	-7.5809999	-10.581
96	1	8	-0.502038	-26.985001	-6.4039998	-10.678
97	1	6	0.079181999	-15.242	-7.3169999	-8.9790001
98	1	6	0.079181999	-15.416	-5.7540002	-8.092
99	1	7	0.086277001	-17.448999	-7.073	-7.7909999
100	1	7	0.086277001	-17.809	-5.6139998	-8.7849998
101	1	7	0.082418002	-17.750999	-7	-10.877
102	1	7	0.082418002	-17.243	-8.4350004	-9.9259996
103	1	7	0.080688998	-19.573	-8.6999998	-10.366
104	1	7	0.080688998	-19.426001	-8.3100004	-8.6210003
105	1	7	0.080688998	-20.120001	-6.2740002	-10.852
106	1	7	0.080688998	-20.084999	-5.9400001	-9.0769997
107	1	7	0.080688998	-21.931999	-7.96	-10.491
108	1	7	0.080688998	-21.896999	-7.6259999	-8.7159996
109	1	7	0.080688998	-22.443001	-5.1989999	-9.2030001
110	1	7	0.080688998	-22.593	-5.5910001	-10.948
111	1	7	0.082418002	-24.267	-6.9060001	-8.6940002
112	1	7	0.082418002	-24.77	-5.46	-9.6300001
113	1	7	0.086277001	-24.593	-6.8109999	-11.78
114	1	7	0.086277001	-24.200001	-8.2659998	-10.797
115	1	6	0.079181999	-26.576	-8.3210001	-11.338
116	1	6	0.079181999	-26.388	-8.0310001	-9.5780001
117	1	1	0.78165698	-27.032	-6.1630001	-11.685
118	1	2	-0.63132697	-26.139999	-5.428	-12.188
119	1	3	-0.47126201	-28.110001	-6.6609998	-12.483
120	1	4	0.022368999	-28.242001	-6.3670001	-13.91
121	1	4	-0.14668199	-27.23	-7.1680002	-14.741
122	1	4	-0.14448901	-27.499001	-8.6800003	-14.667
123	1	4	-0.14448901	-26.438999	-9.507	-15.412
124	1	4	-0.14668199	-26.542999	-9.3640003	-16.940001
125	1	4	0.022368999	-25.573999	-10.304	-17.669001
126	1	3	-0.47126201	-26	-11.701	-17.57
127	1	1	0.78165698	-25.226999	-12.761	-18.138
128	1	2	-0.63132697	-24.143999	-12.522	-18.737
129	1	5	0.320701	-28.864	-7.2090001	-12.011
130	1	6	0.049068	-29.271999	-6.6170001	-14.245
131	1	6	0.049068	-28.091	-5.2800002	-14.082
132	1	7	0.082479	-26.198999	-6.948	-14.389
133	1	7	0.082479	-27.312	-6.8270001	-15.794
134	1	7	0.081436001	-28.509001	-8.9060001	-15.075
135	1	7	0.081436001	-27.489	-8.9980001	-13.602
136	1	7	0.081436001	-26.583	-10.573	-15.133
137	1	7	0.081436001	-25.423	-9.2080002	-15.073
138	1	7	0.082479	-26.289	-8.3219995	-17.229
139	1	7	0.082479	-27.583	-9.5699997	-17.277
140	1	6	0.049068	-24.552	-10.192	-17.243999
141	1	6	0.049068	-25.535999	-10.016	-18.740999
142	1	5	0.320701	-26.895	-11.951	-17.093
143	1	8	-0.502038	-25.559999	-13.74	-18.058001
144	1	4	0.111798	-24.426001	-14.549	-18.214001
145	1	4	-0.140751	-24.816	-16.025	-18.118999
146	1	4	-0.14173999	-25.746	-16.441999	-19.27
147	1	4	-0.142914	-26.025	-17.952999	-19.288
148	1	4	-0.14158501	-26.929001	-18.402	-18.129999
149	1	4	-0.14158501	-27.289	-19.888	-18.259001
150	1	4	-0.142914	-28.193001	-20.337	-17.101
151	1	4	-0.14173999	-28.469999	-21.848	-17.117001
152	1	4	-0.140751	-29.409	-22.266001	-18.26
153	1	4	0.111798	-29.757999	-23.757	-18.190001
154	1	8	-0.502038	-30.487	-24.048	-17.028
155	1	6	0.079181999	-23.945	-14.347	-19.197001
156	1	6	0.079181999	-23.693001	-14.32	-17.409
157	1	7	0.086277001	-23.889	-16.638	-18.150999
158	1	7	0.086277001	-25.313999	-16.198	-17.141001
159	1	7	0.082418002	-26.707001	-15.885	-19.205
160	1	7	0.082418002	-25.266001	-16.171	-20.235001
161	1	7	0.080688998	-26.525999	-18.197001	-20.25
162	1	7	0.080688998	-25.063999	-18.513	-19.257999
163	1	7	0.080688998	-27.863001	-17.798	-18.134001
164	1	7	0.080688998	-26.406	-18.242001	-17.164
165	1	7	0.080688998	-27.812	-20.048	-19.225
166	1	7	0.080688998	-26.355	-20.492001	-18.254999
167	1	7	0.080688998	-27.691999	-20.091	-16.139
168	1	7	0.080688998	-29.153999	-19.777	-17.132
169	1	7	0.082418002	-27.511	-22.406	-17.191
170	1	7	0.082418002	-28.941	-22.117001	-16.146
171	1	7	0.086277001	-30.346001	-21.669001	-18.219
172	1	7	0.086277001	-28.917999	-22.073999	-19.237
173	1	6	0.079181999	-30.344	-24.045	-19.091999
174	1	6	0.079181999	-28.825001	-24.360001	-18.191999
175	1	1	0.78165698	-31.448	-23.690001	-17.183001
176	1	2	-0.63132697	-31.728001	-22.507	-16.855
177	1	3	-0.47126201	-32.438999	-24.549	-17.757
178	1	4	0.022368999	-33.813	-24.115	-18.007999
179	1	4	-0.14668199	-33.889999	-23.18	-19.222
180	1	4	-0.14448901	-33.505001	-23.900999	-20.524
181	1	4	-0.14448901	-33.480999	-22.958	-21.738001
182	1	4	-0.14668199	-34.889	-22.511999	-22.169001
183	1	4	0.022368999	-34.855	-21.690001	-23.465
184	1	3	-0.47126201	-34.544998	-22.525	-24.625999
185	1	1	0.78165698	-34.418999	-21.968	-25.937
186	1	2	-0.63132697	-34.563	-20.731001	-26.129
187	1	5	0.320701	-32.181999	-25.542999	-17.948999
188	1	6	0.049068	-34.455002	-25.004999	-18.188
189	1	6	0.049068	-34.209999	-23.596001	-17.108999
190	1	7	0.082479	-33.226002	-22.302999	-19.063
191	1	7	0.082479	-34.933998	-22.808001	-19.297001
192	1	7	0.081436001	-34.208	-24.742001	-20.714001
193	1	7	0.081436001	-32.487	-24.333	-20.410999
194	1	7	0.081436001	-32.993999	-23.499001	-22.577999
195	1	7	0.081436001	-32.855999	-22.066999	-21.509001
196	1	7	0.082479	-35.332001	-21.877001	-21.374001
197	1	7	0.082479	-35.548	-23.396999	-22.309
198	1	6	0.049068	-34.101002	-20.878	-23.374001
199	1	6	0.049068	-35.851002	-21.221001	-23.615999
200	1	5	0.320701	-34.428001	-23.559	-24.521999
201	1	8	-0.502038	-34.206001	-22.587	-26.740999
202	1	4	0.111798	-33.646999	-21.764999	-27.726999
203	1	4	-0.140751	-33.303001	-22.59	-28.968
204	1	4	-0.14173999	-34.563	-23.176001	-29.627001
205	1	4	-0.142914	-34.262001	-23.875	-30.962
206	1	4	-0.14158501	-33.500999	-25.197001	-30.778999
207	1	4	-0.14158501	-33.335999	-25.926001	-32.118999
208	1	4	-0.142914	-32.575001	-27.247999	-31.936001
209	1	4	-0.14173999	-32.271	-27.947001	-33.27
210	1	4	-0.140751	-33.528	-28.544001	-33.924999
211	1	4	0.111798	-33.185001	-29.329	-35.195999
212	1	8	-0.502038	-32.393002	-30.447001	-34.897999
213	1	6	0.079181999	-34.359001	-20.952999	-27.997999
214	1	6	0.079181999	-32.714001	-21.299999	-27.337
215	1	7	0.086277001	-32.777	-21.933001	-29.695
216	1	7	0.086277001	-32.610001	-23.406	-28.671
217	1	7	0.082418002	-35.058998	-23.889999	-28.934
218	1	7	0.082418002	-35.279999	-22.35	-29.827999
219	1	7	0.080688998	-35.231998	-24.086	-31.464001
220	1	7	0.080688998	-33.682999	-23.193001	-31.622
221	1	7	0.080688998	-34.058998	-25.851	-30.073
222	1	7	0.080688998	-32.494999	-24.993999	-30.355
223	1	7	0.080688998	-34.341999	-26.129999	-32.542999
224	1	7	0.080688998	-32.778	-25.271999	-32.824001
225	1	7	0.080688998	-31.606001	-27.037001	-31.431999
226	1	7	0.080688998	-33.154999	-27.931	-31.275999
227	1	7	0.082418002	-31.784	-27.231001	-33.967999
228	1	7	0.082418002	-31.546	-28.764999	-33.068001
229	1	7	0.086277001	-34.047001	-29.216999	-33.208
230	1	7	0.086277001	-34.228001	-27.729	-34.203999
231	1	6	0.079181999	-34.124001	-29.649	-35.701
232	1	6	0.079181999	-32.632	-28.674	-35.903
233	1	1	0.78165698	-33.022999	-31.150999	-34.467999
234	1	2	-0.63132697	-33.191002	-31.150999	-33.220001
235	1	3	-0.47126201	-33.681999	-32.112	-35.299999
236	1	4	0.022368999	-34.585999	-33.131001	-34.769001
237	1	4	-0.14668199	-35.936001	-32.525002	-34.365002
238	1	4	-0.14448901	-36.701	-31.974001	-35.580002
239	1	4	-0.14448901	-38.012001	-31.275	-35.186001
240	1	4	-0.14668199	-39.089001	-32.262001	-34.707001
241	1	4	0.022368999	-40.432999	-31.563	-34.455002
242	1	3	-0.47126201	-41.074001	-31.160999	-35.708
243	1	1	0.78165698	-42.317001	-30.454	-35.719002
244	1	2	-0.63132697	-42.895	-30.146999	-34.641998
245	1	5	0.320701	-33.459	-32.118999	-36.32
246	1	6	0.049068	-34.750999	-33.917	-35.539001
247	1	6	0.049068	-34.117001	-33.623001	-33.889
248	1	7	0.082479	-35.776001	-31.716999	-33.618999
249	1	7	0.082479	-36.535	-33.324001	-33.879002
250	1	7	0.081436001	-36.914001	-32.796001	-36.298
251	1	7	0.081436001	-36.063	-31.229	-36.102001
252	1	7	0.081436001	-38.386002	-30.729	-36.078999
253	1	7	0.081436001	-37.812	-30.52	-34.394001
254	1	7	0.082479	-38.763	-32.726002	-33.751999
255	1	7	0.082479	-39.229	-33.074001	-35.452999
256	1	6	0.049068	-40.277	-30.672001	-33.808998
257	1	6	0.049068	-41.105	-32.265999	-33.917
258	1	5	0.320701	-40.640999	-31.4	-36.627998
259	1	8	-0.502038	-42.75	-30.188999	-36.623001
260	1	4	0.111798	-43.610001	-29.118999	-36.342999
261	1	4	-0.140751	-44.310001	-28.657	-37.623001
262	1	4	-0.14173999	-45.229	-29.75	-38.193001
263	1	4	-0.142914	-46.063	-29.257	-39.386002
264	1	4	-0.14158501	-45.216	-29.033001	-40.647999
265	1	4	-0.14158501	-46.102001	-28.67	-41.846001
266	1	4	-0.142914	-45.255001	-28.447001	-43.108002
267	1	4	-0.14173999	-46.088001	-27.952	-44.300999
268	1	4	-0.140751	-46.999001	-29.045	-44.881001
269	1	4	0.111798	-47.737	-28.562	-46.133999
270	1	8	-0.502038	-46.834999	-28.285999	-47.173
271	1	6	0.079181999	-44.368	-29.424999	-35.587002
272	1	6	0.079181999	-43.022999	-28.27	-35.929001
273	1	7	0.086277001	-44.910999	-27.752001	-37.389
274	1	7	0.086277001	-43.535999	-28.379	-38.368999
275	1	7	0.082418002	-44.627998	-30.635	-38.495998
276	1	7	0.082418002	-45.932999	-30.077999	-37.396999
277	1	7	0.080688998	-46.835999	-30.027	-39.604
278	1	7	0.080688998	-46.592999	-28.318001	-39.113998
279	1	7	0.080688998	-44.646999	-29.959999	-40.881001
280	1	7	0.080688998	-44.494999	-28.207001	-40.471001
281	1	7	0.080688998	-46.823002	-29.496	-42.021999
282	1	7	0.080688998	-46.671001	-27.743999	-41.612999
283	1	7	0.080688998	-44.481998	-27.677999	-42.889
284	1	7	0.080688998	-44.726002	-29.386	-43.382
285	1	7	0.082418002	-46.696999	-27.072001	-43.997002
286	1	7	0.082418002	-45.382	-27.614	-45.091
287	1	7	0.086277001	-46.398998	-29.945999	-45.133999
288	1	7	0.086277001	-47.759998	-29.337	-44.126999
289	1	6	0.079181999	-48.467999	-29.337	-46.459
290	1	6	0.079181999	-48.310001	-27.639999	-45.900002
291	1	1	0.78165698	-46.521	-29.202999	-47.543999
292	1	2	-0.63132697	-45.507	-29.757999	-47.042
293	1	3	-0.47126201	-47.236	-29.813	-48.622002
294	1	4	0.022368999	-46.855999	-31.104	-49.195999
295	1	4	-0.14668199	-47.231998	-32.262001	-48.263
296	1	4	-0.14448901	-48.755001	-32.388	-48.092999
297	1	4	-0.14448901	-49.151001	-33.48	-47.085999
298	1	4	-0.14668199	-48.895	-34.898998	-47.620998
299	1	4	0.022368999	-49.425999	-35.973999	-46.664001
300	1	3	-0.47126201	-50.889	-36.021	-46.664001
301	1	1	0.78165698	-51.609001	-36.918999	-45.814999
302	1	2	-0.63132697	-51	-37.694	-45.030998
303	1	5	0.320701	-48.028	-29.285	-49.053001
304	1	6	0.049068	-47.367001	-31.238001	-50.174
305	1	6	0.049068	-45.761002	-31.117001	-49.388
306	1	7	0.082479	-46.750999	-32.117001	-47.271999
307	1	7	0.082479	-46.828999	-33.196999	-48.705002
308	1	7	0.081436001	-49.230999	-32.594002	-49.077999
309	1	7	0.081436001	-49.159	-31.422001	-47.721001
310	1	7	0.081436001	-50.233002	-33.361	-46.865002
311	1	7	0.081436001	-48.597	-33.330002	-46.132999
312	1	7	0.082479	-47.801998	-35.056	-47.736
313	1	7	0.082479	-49.367001	-35.026001	-48.619999
314	1	6	0.049068	-49.056999	-35.775002	-45.633999
315	1	6	0.049068	-49.035	-36.964001	-46.985001
316	1	5	0.320701	-51.441002	-35.407001	-47.304001
317	1	8	-0.502038	-52.646	-36.933998	-45.844002
318	1	4	0.111798	-53.061001	-37.473	-44.618999
319	1	4	-0.140751	-54.588001	-37.546001	-44.566002
320	1	4	-0.14173999	-55.146999	-38.514999	-45.620998
321	1	4	-0.142914	-56.662998	-38.727001	-45.484001
322	1	4	-0.14158501	-57.473	-37.490002	-45.902
323	1	4	-0.14158501	-58.978001	-37.785999	-45.876999
324	1	4	-0.142914	-59.787998	-36.549	-46.293999
325	1	4	-0.14173999	-61.305	-36.758999	-46.155998
326	1	4	-0.140751	-61.868	-37.719002	-47.216999
327	1	4	0.111798	-63.395	-37.827	-47.127998
328	1	8	-0.502038	-64.002998	-36.598999	-47.423
329	1	6	0.079181999	-52.627998	-38.490002	-44.483002
330	1	6	0.079181999	-52.703999	-36.825001	-43.789001
331	1	7	0.086277001	-54.889	-37.888	-43.551998
332	1	7	0.086277001	-54.997002	-36.526001	-44.726002
333	1	7	0.082418002	-54.910999	-38.144001	-46.643002
334	1	7	0.082418002	-54.651001	-39.502998	-45.499001
335	1	7	0.080688998	-56.949001	-39.580002	-46.138
336	1	7	0.080688998	-56.911999	-39.007	-44.437
337	1	7	0.080688998	-57.178001	-37.182999	-46.929001
338	1	7	0.080688998	-57.259998	-36.652	-45.205002
339	1	7	0.080688998	-59.191002	-38.624001	-46.573002
340	1	7	0.080688998	-59.273998	-38.092999	-44.848999
341	1	7	0.080688998	-59.500999	-35.695	-45.641998
342	1	7	0.080688998	-59.541	-36.27	-47.341999
343	1	7	0.082418002	-61.541	-37.139	-45.138
344	1	7	0.082418002	-61.796001	-35.768002	-46.266998
345	1	7	0.086277001	-61.584999	-37.369999	-48.234001
346	1	7	0.086277001	-61.444	-38.734001	-47.068001
347	1	6	0.079181999	-63.754002	-38.611	-47.832001
348	1	6	0.079181999	-63.688999	-38.139	-46.103001
349	1	1	0.78165698	-63.935001	-36.473	-48.450001
350	1	2	-0.63132697	-62.926998	-35.895	-48.937
351	1	3	-0.47126201	-64.988998	-36.948002	-49.293999
352	1	4	0.022368999	-64.961998	-36.810001	-50.75
353	1	4	-0.14668199	-63.977001	-37.799999	-51.386002
354	1	4	-0.14448901	-64.417999	-39.257999	-51.18
355	1	4	-0.14448901	-63.396999	-40.268002	-51.723999
356	1	4	-0.14668199	-63.349998	-40.293999	-53.262001
357	1	4	0.022368999	-62.431999	-41.404999	-53.786999
358	1	3	-0.47126201	-63.018002	-42.730999	-53.583
359	1	1	0.78165698	-62.320999	-43.923	-53.957001
360	1	2	-0.63132697	-61.171001	-43.865002	-54.466999
361	1	5	0.320701	-65.836998	-37.359001	-48.842999
362	1	6	0.049068	-65.981003	-36.992001	-51.157001
363	1	6	0.049068	-64.677002	-35.771	-51.02
364	1	7	0.082479	-62.963001	-37.646	-50.959999
365	1	7	0.082479	-63.928001	-37.577	-52.473
366	1	7	0.081436001	-65.406998	-39.426998	-51.66
367	1	7	0.081436001	-64.537003	-39.450001	-50.091
368	1	7	0.081436001	-63.681999	-41.275002	-51.349998
369	1	7	0.081436001	-62.387001	-40.036999	-51.32
370	1	7	0.082479	-62.958	-39.324001	-53.632999
371	1	7	0.082479	-64.373001	-40.431	-53.676998
372	1	6	0.049068	-61.445	-41.348	-53.278
373	1	6	0.049068	-62.268002	-41.249001	-54.875
374	1	5	0.320701	-63.973999	-42.833	-53.174
375	1	8	-0.502038	-62.766998	-44.847	-53.806
376	1	4	0.111798	-61.721001	-45.778999	-53.763
377	1	4	-0.140751	-62.279999	-47.187	-53.550999
378	1	4	-0.14173999	-63.146999	-47.638	-54.737999
379	1	4	-0.142914	-63.589001	-49.105999	-54.623001
380	1	4	-0.14158501	-64.636002	-49.324001	-53.52
381	1	4	-0.14158501	-65.146004	-50.77	-53.525002
382	1	4	-0.142914	-66.192001	-50.987999	-52.422001
383	1	4	-0.14173999	-66.633003	-52.456001	-52.304001
384	1	4	-0.140751	-67.510002	-52.905998	-53.484001
385	1	4	0.111798	-68.027	-54.335999	-53.292
386	1	8	-0.502038	-68.882004	-54.416	-52.182999
387	1	6	0.079181999	-61.137001	-45.742001	-54.709
388	1	6	0.079181999	-61.040001	-45.533001	-52.917999
389	1	7	0.086277001	-61.426998	-47.889999	-53.426998
390	1	7	0.086277001	-62.876999	-47.194	-52.613998
391	1	7	0.082418002	-64.041	-46.983002	-54.827999
392	1	7	0.082418002	-62.556999	-47.530998	-55.674
393	1	7	0.080688998	-64.028999	-49.407001	-55.598999
394	1	7	0.080688998	-62.703999	-49.752998	-54.438999
395	1	7	0.080688998	-65.491997	-48.632999	-53.68
396	1	7	0.080688998	-64.183998	-49.105999	-52.528999
397	1	7	0.080688998	-65.597	-50.987999	-54.515999
398	1	7	0.080688998	-64.289001	-51.460999	-53.365002
399	1	7	0.080688998	-65.752998	-50.685001	-51.445999
400	1	7	0.080688998	-67.078003	-50.341999	-52.606998
401	1	7	0.082418002	-65.738998	-53.112999	-52.223999
402	1	7	0.082418002	-67.213997	-52.562	-51.362
403	1	7	0.086277001	-68.375	-52.216999	-53.599998
404	1	7	0.086277001	-66.917	-52.880001	-54.423
405	1	6	0.079181999	-68.561996	-54.666	-54.210999
406	1	6	0.079181999	-67.170998	-55.027	-53.137001
407	1	1	0.78165698	-69.780998	-53.983002	-52.469002
408	1	2	-0.63132697	-69.954002	-52.747002	-52.298
409	1	3	-0.47126201	-70.807999	-54.797001	-53.043999
410	1	4	0.022368999	-72.098	-54.258999	-53.474998
411	1	4	-0.14668199	-71.963997	-53.467999	-54.783001
412	1	4	-0.14448901	-71.550003	-54.369999	-55.957001
413	1	4	-0.14448901	-71.315002	-53.582001	-57.255001
414	1	4	-0.14668199	-72.621002	-53.049	-57.868999
415	1	4	0.022368999	-72.383003	-52.390999	-59.234001
416	1	3	-0.47126201	-72.069	-53.382	-60.264
417	1	1	0.78165698	-71.766998	-52.994999	-61.608002
418	1	2	-0.63132697	-71.754997	-51.780998	-61.943001
419	1	5	0.320701	-70.647003	-55.827999	-53.104
420	1	6	0.049068	-72.816002	-55.095001	-53.622002
421	1	6	0.049068	-72.511002	-53.602001	-52.68
422	1	7	0.082479	-71.223	-52.651001	-54.653
423	1	7	0.082479	-72.948997	-53.004002	-55
424	1	7	0.081436001	-72.322998	-55.152	-56.125
425	1	7	0.081436001	-70.599998	-54.888	-55.699001
426	1	7	0.081436001	-70.82	-54.263	-57.98
427	1	7	0.081436001	-70.616997	-52.737999	-57.061001
428	1	7	0.082479	-73.058998	-52.284	-57.193001
429	1	7	0.082479	-73.360001	-53.873001	-57.979
430	1	6	0.049068	-71.554001	-51.653999	-59.155998
431	1	6	0.049068	-73.304001	-51.844002	-59.532001
432	1	5	0.320701	-72.075996	-54.403	-60.040001
433	1	8	-0.502038	-71.556	-53.722	-62.316002
434	1	4	0.111798	-70.823997	-53.081001	-63.324001
435	1	4	-0.140751	-70.468002	-54.075001	-64.431
436	1	4	-0.14173999	-71.723	-54.603001	-65.144997
437	1	4	-0.142914	-71.386002	-55.479	-66.362
438	1	4	-0.14158501	-70.796997	-56.841	-65.964996
439	1	4	-0.14158501	-70.598	-57.733002	-67.196999
440	1	4	-0.142914	-70.008003	-59.095001	-66.801003
441	1	4	-0.14173999	-69.668999	-59.971001	-68.016998
442	1	4	-0.140751	-70.921997	-60.509998	-68.725998
443	1	4	0.111798	-70.558998	-61.466999	-69.866997
444	1	8	-0.502038	-69.926003	-62.618	-69.374001
445	1	6	0.079181999	-71.415001	-52.237999	-63.748001
446	1	6	0.079181999	-69.883003	-52.669998	-62.895
447	1	7	0.086277001	-69.810997	-53.562	-65.167
448	1	7	0.086277001	-69.899002	-54.916	-63.981998
449	1	7	0.082418002	-72.353996	-55.178001	-64.431999
450	1	7	0.082418002	-72.322998	-53.737999	-65.501999
451	1	7	0.080688998	-72.325996	-55.646999	-66.931999
452	1	7	0.080688998	-70.68	-54.939999	-67.029999
453	1	7	0.080688998	-71.483002	-57.348999	-65.252998
454	1	7	0.080688998	-69.815002	-56.692001	-65.468002
455	1	7	0.080688998	-71.579002	-57.881001	-67.695
456	1	7	0.080688998	-69.911003	-57.224998	-67.910004
457	1	7	0.080688998	-69.069	-58.925999	-66.228996
458	1	7	0.080688998	-70.716003	-59.633999	-66.133003
459	1	7	0.082418002	-69.044998	-59.394001	-68.735001
460	1	7	0.082418002	-69.059998	-60.828999	-67.657997
461	1	7	0.086277001	-71.572998	-61.039001	-67.997002
462	1	7	0.086277001	-71.5	-59.666	-69.157997
463	1	6	0.079181999	-71.481003	-61.747002	-70.426003
464	1	6	0.079181999	-69.876999	-60.958	-70.581001
465	1	8	-0.502038	4.9039998	1.834	-0.308
466	1	4	0.111798	4.8870001	2.826	0.68099999
467	1	4	-0.140751	5.6139998	4.0770001	0.183
468	1	4	-0.14173999	4.8899999	4.7160001	-1.013
469	1	4	-0.142914	5.5089998	6.0599999	-1.4299999
470	1	4	-0.14158501	6.8839998	5.8969998	-2.095
471	1	4	-0.14158501	7.4070001	7.2420001	-2.6129999
472	1	4	-0.142864	8.7819996	7.079	-3.2780001
473	1	4	-0.136388	9.4029999	8.4230003	-3.6930001
474	1	4	-0.16867501	8.6879997	9.0579996	-4.8969998
475	1	4	0.086563997	9.3900003	10.339	-5.3610001
476	1	9	-0.68447697	10.679	10.06	-5.8390002
477	1	6	0.079181999	3.8369999	3.0799999	0.94999999
478	1	6	0.079181999	5.4039998	2.45	1.592
479	1	7	0.086277001	5.6669998	4.8099999	1.018
480	1	7	0.086277001	6.6500001	3.796	-0.1
481	1	7	0.082418002	4.8930001	4.0170002	-1.878
482	1	7	0.082418002	3.829	4.9000001	-0.73400003
483	1	7	0.080688998	4.816	6.5450001	-2.152
484	1	7	0.080688998	5.5929999	6.7270002	-0.54400003
485	1	7	0.080688998	6.802	5.184	-2.9449999
486	1	7	0.080688998	7.6090002	5.4899998	-1.358
487	1	7	0.080688998	6.6810002	7.6490002	-3.349
488	1	7	0.080688998	7.4879999	7.9549999	-1.763
489	1	7	0.080688998	9.4729996	6.592	-2.556
490	1	7	0.080688998	8.6969995	6.4130001	-4.165
491	1	7	0.082590997	9.3909998	9.125	-2.8310001
492	1	7	0.082590997	10.466	8.2370005	-3.961
493	1	7	0.089653	8.6490002	8.335	-5.7410002
494	1	7	0.089653	7.6459999	9.3199997	-4.618
495	1	6	0.069363996	8.7840004	10.829	-6.1570001
496	1	6	0.069363996	9.467	11.052	-4.513
497	1	10	0.378207	10.566	9.6420002	-6.7329998
498	1	1	0.78165698	-70.696999	-63.223999	-68.918999
499	1	2	-0.63132697	-70.917	-64.382004	-69.363998
500	1	3	-0.47126201	-71.446999	-62.705002	-67.816002
501	1	4	0.022368999	-72.508003	-63.462002	-67.152
502	1	4	-0.14668199	-73.774002	-63.536999	-68.019997
503	1	4	-0.144302	-74.325996	-62.162998	-68.439003
504	1	4	-0.14008699	-74.848999	-61.344002	-67.25
505	1	4	-0.124289	-75.527	-60.053001	-67.727997
506	1	4	0.18175399	-76.074997	-59.23	-66.557999
507	1	3	-0.67388397	-74.980003	-58.699001	-65.751999
508	1	11	0.59148502	-74.867996	-58.965	-64.512001
509	1	2	-0.50513601	-74.759003	-59.223999	-63.306999
510	1	5	0.320701	-71.186996	-61.766998	-67.438004
511	1	6	0.049068	-72.149002	-64.489998	-66.931
512	1	6	0.049068	-72.748001	-62.988998	-66.177002
513	1	7	0.082479	-73.549004	-64.120003	-68.939003
514	1	7	0.082479	-74.558998	-64.096001	-67.466003
515	1	7	0.081436001	-73.543999	-61.585999	-68.980003
516	1	7	0.081436001	-75.162003	-62.335999	-69.152
517	1	7	0.080165997	-75.580002	-61.952999	-66.674004
518	1	7	0.080165997	-74.000999	-61.081001	-66.582001
519	1	7	0.076150998	-76.373001	-60.312	-68.401001
520	1	7	0.076150998	-74.803001	-59.437	-68.305
521	1	6	0.025451001	-76.657997	-58.375999	-66.963997
522	1	6	0.025451001	-76.766998	-59.853001	-65.946999

Bonds

1	1	1	2
2	2	1	3
3	3	1	465
4	4	3	4
5	5	3	13
6	6	4	5
7	7	4	14
8	7	4	15
9	6	5	6
10	7	5	16
11	7	5	17
12	6	6	7
13	7	6	18
14	7	6	19
15	6	7	8
16	7	7	20
17	7	7	21
18	6	8	9
19	7	8	22
20	7	8	23
21	4	9	10
22	7	9	24
23	7	9	25
24	2	10	11
25	5	10	26
26	1	11	12
27	3	11	27
28	8	27	28
29	6	28	29
30	7	28	39
31	7	28	40
32	6	29	30
33	7	29	41
34	7	29	42
35	6	30	31
36	7	30	43
37	7	30	44
38	6	31	32
39	7	31	45
40	7	31	46
41	6	32	33
42	7	32	47
43	7	32	48
44	6	33	34
45	7	33	49
46	7	33	50
47	6	34	35
48	7	34	51
49	7	34	52
50	6	35	36
51	7	35	53
52	7	35	54
53	6	36	37
54	7	36	55
55	7	36	56
56	8	37	38
57	7	37	57
58	7	37	58
59	3	38	59
60	1	59	60
61	2	59	61
62	4	61	62
63	5	61	71
64	6	62	63
65	7	62	72
66	7	62	73
67	6	63	64
68	7	63	74
69	7	63	75
70	6	64	65
71	7	64	76
72	7	64	77
73	6	65	66
74	7	65	78
75	7	65	79
76	6	66	67
77	7	66	80
78	7	66	81
79	4	67	68
80	7	67	82
81	7	67	83
82	2	68	69
83	5	68	84
84	1	69	70
85	3	69	85
86	8	85	86
87	6	86	87
88	7	86	97
89	7	86	98
90	6	87	88
91	7	87	99
92	7	87	100
93	6	88	89
94	7	88	101
95	7	88	102
96	6	89	90
97	7	89	103
98	7	89	104
99	6	90	91
100	7	90	105
101	7	90	106
102	6	91	92
103	7	91	107
104	7	91	108
105	6	92	93
106	7	92	109
107	7	92	110
108	6	93	94
109	7	93	111
110	7	93	112
111	6	94	95
112	7	94	113
113	7	94	114
114	8	95	96
115	7	95	115
116	7	95	116
117	3	96	117
118	1	117	118
119	2	117	119
120	4	119	120
121	5	119	129
122	6	120	121
123	7	120	130
124	7	120	131
125	6	121	122
126	7	121	132
127	7	121	133
128	6	122	123
129	7	122	134
130	7	122	135
131	6	123	124
132	7	123	136
133	7	123	137
134	6	124	125
135	7	124	138
136	7	124	139
137	4	125	126
138	7	125	140
139	7	125	141
140	2	126	127
141	5	126	142
142	1	127	128
143	3	127	143
144	8	143	144
145	6	144	145
146	7	144	155
147	7	144	156
148	6	145	146
149	7	145	157
150	7	145	158
151	6	146	147
152	7	146	159
153	7	146	160
154	6	147	148
155	7	147	161
156	7	147	162
157	6	148	149
158	7	148	163
159	7	148	164
160	6	149	150
161	7	149	165
162	7	149	166
163	6	150	151
164	7	150	167
165	7	150	168
166	6	151	152
167	7	151	169
168	7	151	170
169	6	152	153
170	7	152	171
171	7	152	172
172	8	153	154
173	7	153	173
174	7	153	174
175	3	154	175
176	1	175	176
177	2	175	177
178	4	177	178
179	5	177	187
180	6	178	179
181	7	178	188
182	7	178	189
183	6	179	180
184	7	179	190
185	7	179	191
186	6	180	181
187	7	180	192
188	7	180	193
189	6	181	182