Title

522 atoms
521 bonds
986 angles
1848 dihedrals
102 impropers

11 atom types
14 bond types
9 angle types
35 dihedral types
3 improper types
-8.996999741 91.00300026 xlo xhi
-13.46199989 86.53800011 ylo yhi
-15.66600037 84.33399963 zlo zhi
0.0 0.0 0.0 xy xz yz

Masses

1	15.99943
2	12.01078
3	14.00672
4	12.01078
5	1.007947
6	1.007947
7	1.007947
8	15.99943
9	12.01078
10	15.99943
11	1.007947


Pair Coeffs

1	0.2102061	3.0398122
2	0.086879315	3.4806469
3	0.16769152	3.206876
4	0.10884061	3.3795318
5	0.014090815	1.1034277
6	0.016409246	2.5832257
7	0.015779483	2.6445434
8	0.16846514	3.0251065
9	0.21	3.3996695
10	0.20947353	2.99716
11	1.2326e-05	0.53453923

Bond Coeffs

1 harmonic	582.698766451	1.225198386222
2 harmonic	492.76746816345	1.381897776683
3 harmonic	301.15400723785	1.345741232799
4 harmonic	352.0565580496	1.450098586273
5 harmonic	505.144496193	1.019481865027
6 harmonic	264.62148576755	1.52190126495
7 harmonic	370.04670688625	1.093899492634
8 harmonic	279.1350963404	1.454628925034
9 harmonic	366.7408841747	1.425895053732
10 harmonic	300.03137914615	1.451203938761
11 harmonic	366.34047229585	1.464762957261
12 harmonic	602.81384337	1.196112346392
13 harmonic	329.96998057905	1.427343958716
14 harmonic	543.5267831885	0.9716763312559


Angle Coeffs

1 harmonic	57.8982893754	126.8062420451
2 harmonic	201.41175231035	127.4691416191
3 harmonic	55.42182150775	117.3465570514
4 harmonic	63.44422595415	115.5071327674
5 harmonic	65.09061609600001	110.3538806181
6 harmonic	53.20531626545	116.5475862634
7 harmonic	48.776492647595	115.6030999533
8 harmonic	55.07882548015	112.8714009681
9 harmonic	33.56981613361	180


Dihedral Coeffs

1 fourier 1	1.809047390003	2	180
2 fourier 1	-0.04816277792592	1	0
3 fourier 1	0.4860993122944	2	180
4 fourier 1	0.8916986138746	1	0
5 fourier 1	1.163809172478	2	180
6 fourier 1	0.1679186987369	1	180
7 fourier 1	-0.1488678166443	4	180
8 fourier 1	-0.1230328948768	3	180
9 fourier 1	0.2939295466901	2	0
10 fourier 1	-0.3024127022865	1	0
11 fourier 1	0.182238503271	2	0
12 fourier 1	0.02972342374561	3	0
13 fourier 1	0.1918272375143	3	0
14 fourier 1	0.9202179876409	1	180
15 fourier 1	0.0473758381877	3	0
16 fourier 1	2.779853741805	2	180
17 fourier 1	0.1155372516788	3	0
18 fourier 1	0.09223874044423	3	0
19 fourier 1	0.3159935921949	2	180
20 fourier 1	0.3247796806857	1	180
21 fourier 1	0.1040663847541	3	0
22 fourier 1	3.101948770557	2	180
23 fourier 1	-0.4252153282372	1	0
24 fourier 1	0.9974165607242	2	180
25 fourier 1	2.348375642009	2	180
26 fourier 1	1.256156174911	1	0
27 fourier 1	0.1911926717192	3	0
28 fourier 1	0.1115525666802	3	0
29 fourier 1	0.3432490222662	1	0
30 fourier 1	0.457973137376	1	0
31 fourier 1	-1.382973039546	1	0
32 fourier 1	0	1	0
33 fourier 1	0.3445382149273	3	0
34 fourier 1	0.1364556373303	1	0
35 fourier 1	0.3026390167484	3	0


Improper Coeffs

1 3.5	-1	2
2 0.3333333333333333	-1	2
3 0.3666666666666667	-1	2


Atoms

1	1	1	-0.62921602	5.5929999	0.308	0.098999999
2	1	2	0.78210801	4.6459999	1.073	-0.22499999
3	1	3	-0.470734	3.2980001	0.59799999	-0.25600001
4	1	4	0.022645	2.967	-0.78899997	0.072999999
5	1	4	-0.14646	1.454	-1.039	0.015
6	1	4	-0.14427499	0.71100003	-0.33000001	1.16
7	1	4	-0.14427499	-0.78399998	-0.685	1.204
8	1	4	-0.147737	-1.574	-0.057999998	0.045000002
9	1	4	0.028547	-3.075	-0.32100001	0.199
10	1	3	-0.526416	-3.812	0.237	-0.93300003
11	1	2	0.53959	-4.0619998	1.6390001	-1.0779999
12	1	1	-0.708332	-3.6559999	2.4619999	-0.215
13	1	5	0.31461599	-4.224	-0.41499999	-1.637
14	1	6	0.046353001	-3.25	-1.419	0.237
15	1	6	0.046353001	-3.454	0.119	1.148
16	1	7	0.083048001	-1.39	1.038	0.024
17	1	7	0.083048001	-1.2359999	-0.491	-0.92000002
18	1	7	0.081988998	-0.90899998	-1.79	1.194
19	1	7	0.081988998	-1.197	-0.308	2.165
20	1	7	0.081988998	1.164	-0.64300001	2.1270001
21	1	7	0.081988998	0.82999998	0.77100003	1.076
22	1	7	0.083048001	1.278	-2.1340001	0.089000002
23	1	7	0.083048001	1.0700001	-0.69599998	-0.97000003
24	1	6	0.049848001	3.467	-1.461	-0.65700001
25	1	6	0.049848001	3.3499999	-1.0369999	1.087
26	1	5	0.32120201	2.55	1.27	-0.54100001
27	1	8	-0.50159502	7.4749999	9.7519999	-7.6869998
28	1	4	0.112074	6.8470001	9.7049999	-6.434
29	1	4	-0.140525	6.71	8.2600002	-5.9419999
30	1	4	-0.141525	5.7859998	7.4349999	-6.8530002
31	1	4	-0.142702	5.7189999	5.9549999	-6.4429998
32	1	4	-0.14137299	4.9390001	5.7360001	-5.138
33	1	4	-0.14137299	4.7810001	4.2410002	-4.8379998
34	1	4	-0.142702	4.0120001	4.0190001	-3.53
35	1	4	-0.141525	3.8659999	2.52	-3.2249999
36	1	4	-0.140525	2.977	2.2479999	-2
37	1	4	0.112074	3.6110001	2.6860001	-0.671
38	1	8	-0.50159502	4.849	2.0599999	-0.47099999
39	1	6	0.079920001	2.9189999	2.4400001	0.16599999
40	1	6	0.079920001	3.7539999	3.786	-0.65799999
41	1	7	0.086860999	1.999	2.76	-2.125
42	1	7	0.086860999	2.7720001	1.156	-1.949
43	1	7	0.082973003	3.3970001	2.0209999	-4.1020002
44	1	7	0.082973003	4.869	2.0639999	-3.0780001
45	1	7	0.081239	4.5619998	4.5159998	-2.7019999
46	1	7	0.081239	3.0039999	4.48	-3.615
47	1	7	0.081239	4.2329998	3.7539999	-5.6739998
48	1	7	0.081239	5.7880001	3.7739999	-4.756
49	1	7	0.081239	3.9330001	6.2010002	-5.2249999
50	1	7	0.081239	5.48	6.2160001	-4.2940001
51	1	7	0.081239	6.7480001	5.5450001	-6.3439999
52	1	7	0.081239	5.2119999	5.3969998	-7.2610002
53	1	7	0.082973003	4.763	7.8730001	-6.8509998
54	1	7	0.082973003	6.1700001	7.4819999	-7.895
55	1	7	0.086860999	6.2950001	8.2860003	-4.9130001
56	1	7	0.086860999	7.717	7.7909999	-5.8979998
57	1	6	0.079920001	5.8410001	10.169	-6.5170002
58	1	6	0.079920001	7.4289999	10.298	-5.6919999
59	1	1	-0.62921602	13.302	1.043	-6.8330002
60	1	2	0.78210801	12.522	1.785	-7.4860001
61	1	3	-0.470734	12.093	3.043	-6.9569998
62	1	4	0.022645	12.53	3.5090001	-5.6399999
63	1	4	-0.14646	11.975	4.9039998	-5.3210001
64	1	4	-0.14427499	12.621	5.9920001	-6.1950002
65	1	4	-0.14427499	12.184	7.4099998	-5.7919998
66	1	4	-0.14646	10.724	7.7059999	-6.164
67	1	4	0.022645	10.369	9.1680002	-5.8699999
68	1	3	-0.470734	8.9650002	9.4259996	-6.1810002
69	1	2	0.782107	8.4820004	9.5679998	-7.5209999
70	1	1	-0.62921602	9.2650003	9.4799995	-8.5039997
71	1	5	0.32120201	8.2930002	9.5719995	-5.395
72	1	6	0.049848001	10.544	9.375	-4.7909999
73	1	6	0.049848001	11.017	9.8529997	-6.4590001
74	1	7	0.083048001	10.568	7.4970002	-7.244
75	1	7	0.083048001	10.045	7.053	-5.5760002
76	1	7	0.081988998	12.335	7.5539999	-4.6989999
77	1	7	0.081988998	12.843	8.1339998	-6.3200002
78	1	7	0.081988998	13.726	5.9310002	-6.0840001
79	1	7	0.081988998	12.383	5.8200002	-7.2670002
80	1	7	0.083048001	12.182	5.125	-4.2509999
81	1	7	0.083048001	10.873	4.8940001	-5.4619999
82	1	6	0.049848001	12.169	2.796	-4.868
83	1	6	0.049848001	13.641	3.5280001	-5.598
84	1	5	0.32120201	11.437	3.6159999	-7.533
85	1	8	-0.50159502	5.1240001	-3.8050001	-14.767
86	1	4	0.112074	6.0489998	-2.763	-14.924
87	1	4	-0.140525	6.717	-2.4159999	-13.588
88	1	4	-0.141525	5.7030001	-1.864	-12.573
89	1	4	-0.142702	6.3270001	-1.612	-11.191
90	1	4	-0.14137299	7.277	-0.405	-11.182
91	1	4	-0.14137299	7.7709999	-0.107	-9.7609997
92	1	4	-0.142702	8.7279997	1.091	-9.7489996
93	1	4	-0.141525	9.2299995	1.38	-8.3269997
94	1	4	-0.140525	10.079	2.661	-8.2449999
95	1	4	0.112074	11.44	2.5420001	-8.9449997
96	1	8	-0.50159502	12.188	1.479	-8.4189997
97	1	6	0.079920001	12	3.4979999	-8.8269997
98	1	6	0.079920001	11.3	2.3829999	-10.034
99	1	7	0.086860999	9.5139999	3.5120001	-8.6850004
100	1	7	0.086860999	10.253	2.901	-7.1739998
101	1	7	0.082973003	8.3529997	1.511	-7.6570001
102	1	7	0.082973003	9.8129997	0.51300001	-7.947
103	1	7	0.081239	9.5909996	0.866	-10.411
104	1	7	0.081239	8.1990004	1.9859999	-10.145
105	1	7	0.081239	6.8979998	0.113	-9.1070004
106	1	7	0.081239	8.2969999	-1.001	-9.3590002
107	1	7	0.081239	6.7459998	0.48800001	-11.58
108	1	7	0.081239	8.1549997	-0.61500001	-11.829
109	1	7	0.081239	6.8660002	-2.5220001	-10.85
110	1	7	0.081239	5.4990001	-1.4220001	-10.473
111	1	7	0.082973003	5.2519999	-0.92400002	-12.961
112	1	7	0.082973003	4.881	-2.602	-12.445
113	1	7	0.086860999	7.5019999	-1.656	-13.784
114	1	7	0.086860999	7.2090001	-3.325	-13.178
115	1	6	0.079920001	5.5229998	-1.87	-15.322
116	1	6	0.079920001	6.8280001	-3.052	-15.666
117	1	1	-0.62921602	9.6289997	-8.677	-6.612
118	1	2	0.78210801	8.6120005	-8.2089996	-7.1900001
119	1	3	-0.470734	8.7069998	-7.652	-8.5030003
120	1	4	0.022645	9.9820004	-7.5929999	-9.2200003
121	1	4	-0.14646	9.8129997	-6.9990001	-10.625
122	1	4	-0.14427499	9.0480003	-7.9489999	-11.562
123	1	4	-0.14427499	8.9960003	-7.4349999	-13.009
124	1	4	-0.14646	8.0719995	-6.2189999	-13.172
125	1	4	0.022645	7.941	-5.823	-14.646
126	1	3	-0.470734	7.0999999	-4.6350002	-14.784
127	1	2	0.782107	5.6739998	-4.677	-14.659
128	1	1	-0.62921602	5.0760002	-5.7610002	-14.426
129	1	5	0.32120201	7.5469999	-3.7279999	-15.043
130	1	6	0.049848001	8.9510002	-5.598	-15.054
131	1	6	0.049848001	7.5100002	-6.6589999	-15.239
132	1	7	0.083048001	7.0669999	-6.461	-12.763
133	1	7	0.083048001	8.4829998	-5.3540001	-12.609
134	1	7	0.081988998	10.021	-7.1820002	-13.357
135	1	7	0.081988998	8.6169996	-8.2600002	-13.652
136	1	7	0.081988998	9.5609999	-8.9350004	-11.568
137	1	7	0.081988998	8.0150003	-8.1120005	-11.187
138	1	7	0.083048001	10.825	-6.809	-11.047
139	1	7	0.083048001	9.2880001	-6.0240002	-10.543
140	1	6	0.049848001	10.688	-6.9559999	-8.6459999
141	1	6	0.049848001	10.419	-8.6129999	-9.2930002
142	1	5	0.32120201	7.836	-7.2670002	-8.934
143	1	8	-0.50159502	0.315	-3.813	-0.059999999
144	1	4	0.112074	0.315	-4.7610002	-1.0930001
145	1	4	-0.140525	1.712	-4.9060001	-1.705
146	1	4	-0.141525	2.1689999	-3.608	-2.391
147	1	4	-0.142702	3.6110001	-3.6930001	-2.9170001
148	1	4	-0.14137299	3.7409999	-4.6079998	-4.1440001
149	1	4	-0.14137299	5.1620002	-4.5599999	-4.717
150	1	4	-0.142702	5.2979999	-5.48	-5.9359999
151	1	4	-0.141525	6.7259998	-5.4380002	-6.5
152	1	4	-0.140525	6.8699999	-6.2340002	-7.809
153	1	4	0.112074	6.7459998	-7.7529998	-7.6209998
154	1	8	-0.50159502	7.6950002	-8.2290001	-6.7049999
155	1	6	0.079920001	6.881	-8.2580004	-8.6049995
156	1	6	0.079920001	5.7309999	-8.0150003	-7.2600002
157	1	7	0.086860999	6.1069999	-5.8930001	-8.5410004
158	1	7	0.086860999	7.868	-6.0139999	-8.2469997
159	1	7	0.082973003	6.9959998	-4.381	-6.7150002
160	1	7	0.082973003	7.4439998	-5.8179998	-5.7420001
161	1	7	0.081239	5.0479999	-6.5180001	-5.6300001
162	1	7	0.081239	4.579	-5.1570001	-6.7210002
163	1	7	0.081239	5.4029999	-3.516	-5.0159998
164	1	7	0.081239	5.8850002	-4.8779998	-3.9330001
165	1	7	0.081239	3.0190001	-4.2839999	-4.9260001
166	1	7	0.081239	3.506	-5.6550002	-3.8559999
167	1	7	0.081239	4.2870002	-4.046	-2.1070001
168	1	7	0.081239	3.9330001	-2.6670001	-3.2
169	1	7	0.082973003	1.478	-3.3559999	-3.224
170	1	7	0.082973003	2.125	-2.776	-1.654
171	1	7	0.086860999	1.677	-5.73	-2.4489999
172	1	7	0.086860999	2.4330001	-5.1890001	-0.90799999
173	1	6	0.079920001	-0.40599999	-4.441	-1.876
174	1	6	0.079920001	-0.028000001	-5.7480001	-0.70700002
175	1	1	-0.62921602	10.299	-4.9050002	3.049
176	1	2	0.78210801	9.316	-4.1810002	2.737
177	1	3	-0.470734	8.0480003	-4.763	2.4260001
178	1	4	0.022645	7.8439999	-6.2129998	2.4460001
179	1	4	-0.14646	6.3899999	-6.5840001	2.125
180	1	4	-0.14427499	5.4320002	-6.1849999	3.2620001
181	1	4	-0.14427499	3.9960001	-6.677	3.0239999
182	1	4	-0.14646	3.2869999	-5.9099998	1.897
183	1	4	0.022645	1.8200001	-6.336	1.783
184	1	3	-0.470734	1.169	-5.6360002	0.67699999
185	1	2	0.782107	0.77499998	-4.2620001	0.755
186	1	1	-0.62921602	0.97100002	-3.5899999	1.802
187	1	5	0.32120201	0.92699999	-6.1719999	-0.186
188	1	6	0.049848001	1.772	-7.4310002	1.594
189	1	6	0.049848001	1.278	-6.1269999	2.73
190	1	7	0.083048001	3.342	-4.8189998	2.1029999
191	1	7	0.083048001	3.7909999	-6.1129999	0.92799997
192	1	7	0.081988998	4.0029998	-7.7659998	2.7950001
193	1	7	0.081988998	3.425	-6.5359998	3.967
194	1	7	0.081988998	5.7950001	-6.638	4.211
195	1	7	0.081988998	5.4299998	-5.0819998	3.3970001
196	1	7	0.083048001	6.336	-7.684	1.974
197	1	7	0.083048001	6.0929999	-6.0910001	1.175
198	1	6	0.049848001	8.5059996	-6.6789999	1.686
199	1	6	0.049848001	8.125	-6.618	3.4430001
200	1	5	0.32120201	7.2670002	-4.1199999	2.1630001
201	1	8	-0.50159502	12.008	6.0149999	-2.5350001
202	1	4	0.112074	11.239	5.665	-1.415
203	1	4	-0.140525	11.214	4.1459999	-1.219
204	1	4	-0.141525	10.513	3.434	-2.388
205	1	4	-0.142702	10.57	1.903	-2.2690001
206	1	4	-0.14137299	9.6660004	1.362	-1.151
207	1	4	-0.14137299	9.6490002	-0.17200001	-1.154
208	1	4	-0.142702	8.7550001	-0.71600002	-0.033
209	1	4	-0.141525	8.7489996	-2.2520001	-0.030999999
210	1	4	-0.140525	7.7540002	-2.8399999	0.98400003
211	1	4	0.112074	8.1610003	-2.6140001	2.447
212	1	8	-0.50159502	9.4309998	-3.151	2.707
213	1	6	0.079920001	7.4050002	-3.0829999	3.1159999
214	1	6	0.079920001	8.1709995	-1.53	2.6800001
215	1	7	0.086860999	6.7449999	-2.405	0.81400001
216	1	7	0.086860999	7.6739998	-3.9349999	0.80500001
217	1	7	0.082973003	8.4549999	-2.6110001	-1.0420001
218	1	7	0.082973003	9.7729998	-2.6340001	0.17399999
219	1	7	0.081239	9.1359997	-0.34299999	0.94199997
220	1	7	0.081239	7.7179999	-0.34099999	-0.177
221	1	7	0.081239	9.2690001	-0.53399998	-2.135
222	1	7	0.081239	10.686	-0.551	-1.0140001
223	1	7	0.081239	8.6300001	1.74	-1.2970001
224	1	7	0.081239	10.038	1.714	-0.16599999
225	1	7	0.081239	11.62	1.5779999	-2.098
226	1	7	0.081239	10.238	1.472	-3.2390001
227	1	7	0.082973003	9.4540005	3.7679999	-2.4549999
228	1	7	0.082973003	11.015	3.72	-3.3380001
229	1	7	0.086860999	10.674	3.931	-0.273
230	1	7	0.086860999	12.256	3.7720001	-1.117
231	1	6	0.079920001	10.204	6.0430002	-1.556
232	1	6	0.079920001	11.651	6.152	-0.50199997
233	1	1	-0.62921602	18.667999	-2.1199999	-2.447
234	1	2	0.78210801	17.893	-1.3380001	-3.0599999
235	1	3	-0.470734	17.257	-0.25400001	-2.3789999
236	1	4	0.022645	17.469999	-0.017000001	-0.94999999
237	1	4	-0.14646	16.718	1.2309999	-0.46599999
238	1	4	-0.14427499	17.336	2.5239999	-1.025
239	1	4	-0.14427499	16.688999	3.789	-0.43799999
240	1	4	-0.14646	15.261	4.0170002	-0.95599997
241	1	4	0.022645	14.703	5.3540001	-0.456
242	1	3	-0.470734	13.328	5.5380001	-0.91399997
243	1	2	0.782107	13.002	5.895	-2.2620001
244	1	1	-0.62921602	13.905	6.0739999	-3.1210001
245	1	5	0.32120201	12.551	5.4650002	-0.22
246	1	6	0.049848001	14.717	5.3610001	0.65600002
247	1	6	0.049848001	15.334	6.198	-0.81199998
248	1	7	0.083048001	15.266	4.0110002	-2.0680001
249	1	7	0.083048001	14.596	3.2019999	-0.60100001
250	1	7	0.081988998	16.684	3.7290001	0.67299998
251	1	7	0.081988998	17.318001	4.6599998	-0.72500002
252	1	7	0.081988998	18.417999	2.5439999	-0.76899999
253	1	7	0.081988998	17.254999	2.5450001	-2.1329999
254	1	7	0.083048001	16.764	1.257	0.64399999
255	1	7	0.083048001	15.652	1.148	-0.764
256	1	6	0.049848001	17.101	-0.898	-0.38100001
257	1	6	0.049848001	18.556999	0.094999999	-0.74599999
258	1	5	0.32120201	16.614	0.35800001	-2.9300001
259	1	8	-0.50159502	12.165	-6.0469999	-12.226
260	1	4	0.112074	12.974	-4.914	-12.055
261	1	4	-0.140525	13.425	-4.777	-10.597
262	1	4	-0.141525	12.235	-4.5300002	-9.6560001
263	1	4	-0.142702	12.648	-4.4970002	-8.1759996
264	1	4	-0.14137299	13.442	-3.234	-7.8099999
265	1	4	-0.14137299	13.717	-3.1760001	-6.302
266	1	4	-0.142702	14.518	-1.921	-5.9349999
267	1	4	-0.141525	14.802	-1.8710001	-4.427
268	1	4	-0.140525	15.477	-0.55900002	-3.9920001
269	1	4	0.112074	16.919001	-0.41299999	-4.4980001
270	1	8	-0.50159502	17.716	-1.485	-4.072
271	1	6	0.079920001	17.343	0.54799998	-4.1279998
272	1	6	0.079920001	16.934999	-0.36700001	-5.6059999
273	1	7	0.086860999	14.876	0.30599999	-4.3470001
274	1	7	0.086860999	15.487	-0.51899999	-2.881
275	1	7	0.082973003	13.839	-1.955	-3.8770001
276	1	7	0.082973003	15.431	-2.7390001	-4.131
277	1	7	0.081239	15.477	-1.931	-6.4959998
278	1	7	0.081239	13.941	-1.018	-6.2329998
279	1	7	0.081239	12.75	-3.1689999	-5.7519999
280	1	7	0.081239	14.29	-4.0799999	-5.9980001
281	1	7	0.081239	12.863	-2.3329999	-8.1110001
282	1	7	0.081239	14.411	-3.2309999	-8.3509998
283	1	7	0.081239	13.245	-5.4029999	-7.9310002
284	1	7	0.081239	11.722	-4.5289998	-7.5609999
285	1	7	0.082973003	11.729	-3.5769999	-9.927
286	1	7	0.082973003	11.496	-5.3509998	-9.7840004
287	1	7	0.086860999	14.133	-3.924	-10.537
288	1	7	0.086860999	13.965	-5.6989999	-10.292
289	1	6	0.079920001	12.4	-4.0120001	-12.357
290	1	6	0.079920001	13.867	-4.9790001	-12.717
291	1	1	-0.62921602	16.165001	-11.99	-4.5300002
292	1	2	0.78210801	15.18	-11.513	-5.1539998
293	1	3	-0.470734	15.371	-10.702	-6.316
294	1	4	0.022645	16.709	-10.387	-6.8189998
295	1	4	-0.14646	16.646999	-9.5469999	-8.1020002
296	1	4	-0.14427499	16.121	-10.361	-9.2959995
297	1	4	-0.14427499	16.188999	-9.5799999	-10.618
298	1	4	-0.14646	15.156	-8.4460001	-10.689
299	1	4	0.022645	15.163	-7.7820001	-12.069
300	1	3	-0.470734	14.212	-6.6729999	-12.109
301	1	2	0.782107	12.797	-6.8699999	-12.2
302	1	1	-0.62921602	12.306	-8.0279999	-12.257
303	1	5	0.32120201	14.578	-5.6950002	-12.131
304	1	6	0.049848001	16.181999	-7.3899999	-12.28
305	1	6	0.049848001	14.91	-8.5220003	-12.86
306	1	7	0.083048001	14.144	-8.8549995	-10.48
307	1	7	0.083048001	15.39	-7.6750002	-9.9250002
308	1	7	0.081988998	17.212999	-9.1700001	-10.762
309	1	7	0.081988998	15.993	-10.295	-11.448
310	1	7	0.081988998	16.743999	-11.276	-9.408
311	1	7	0.081988998	15.076	-10.689	-9.1110001
312	1	7	0.083048001	17.674	-9.1859999	-8.3319998
313	1	7	0.083048001	16.004	-8.6599998	-7.921
314	1	6	0.049848001	17.257999	-9.8129997	-6.0430002
315	1	6	0.049848001	17.268999	-11.329	-7.0120001
316	1	5	0.32120201	14.521	-10.322	-6.7909999
317	1	8	-0.50159502	5.6030002	-9.382	1.385
318	1	4	0.112074	5.842	-10.105	0.207
319	1	4	-0.140525	7.3119998	-9.9980001	-0.214
320	1	4	-0.141525	7.6950002	-8.5539999	-0.57800001
321	1	4	-0.142702	9.191	-8.4020004	-0.898
322	1	4	-0.14137299	9.5790005	-9.0430002	-2.2390001
323	1	4	-0.14137299	11.045	-8.7519999	-2.582
324	1	4	-0.142702	11.438	-9.3990002	-3.9159999
325	1	4	-0.141525	12.91	-9.1169996	-4.2509999
326	1	4	-0.140525	13.308	-9.6239996	-5.6479998
327	1	4	0.112074	13.342	-11.155	-5.7600002
328	1	8	-0.50159502	14.219	-11.711	-4.8179998
329	1	6	0.079920001	13.655	-11.442	-6.789
330	1	6	0.079920001	12.327	-11.574	-5.6030002
331	1	7	0.086860999	12.606	-9.217	-6.408
332	1	7	0.086860999	14.319	-9.2299995	-5.8909998
333	1	7	0.082973003	13.078	-8.0170002	-4.2290001
334	1	7	0.082973003	13.568	-9.5699997	-3.4790001
335	1	7	0.081239	11.275	-10.496	-3.8429999
336	1	7	0.081239	10.789	-8.9960003	-4.724
337	1	7	0.081239	11.196	-7.652	-2.6489999
338	1	7	0.081239	11.697	-9.1499996	-1.774
339	1	7	0.081239	8.927	-8.6389999	-3.0439999
340	1	7	0.081239	9.4350004	-10.143	-2.1830001
341	1	7	0.081239	9.7980003	-8.8430004	-0.077
342	1	7	0.081239	9.4219999	-7.3150001	-0.94
343	1	7	0.082973003	7.0879998	-8.2080002	-1.443
344	1	7	0.082973003	7.4629998	-7.8909998	0.28299999
345	1	7	0.086860999	7.467	-10.66	-1.092
346	1	7	0.086860999	7.9569998	-10.365	0.61500001
347	1	6	0.079920001	5.1919999	-9.7049999	-0.60000002
348	1	6	0.079920001	5.573	-11.175	0.354
349	1	1	-0.62921602	15.183	-10.141	5.6500001
350	1	2	0.78210801	14.168	-9.4639997	5.336
351	1	3	-0.470734	13.025	-10.087	4.7449999
352	1	4	0.022645	12.992	-11.525	4.4710002
353	1	4	-0.14646	11.643	-11.958	3.882
354	1	4	-0.14427499	10.512	-11.879	4.9219999
355	1	4	-0.14427499	9.184	-12.445	4.3930001
356	1	4	-0.14646	8.5360003	-11.54	3.335
357	1	4	0.022645	7.1539998	-12.068	2.9349999
358	1	3	-0.470734	6.5679998	-11.228	1.893
359	1	2	0.782107	6.0079999	-9.9379997	2.161
360	1	1	-0.62921602	5.993	-9.4689999	3.3310001
361	1	5	0.32120201	6.4990001	-11.604	0.921
362	1	6	0.049848001	7.2589998	-13.104	2.546
363	1	6	0.049848001	6.4770002	-12.1	3.816
364	1	7	0.083048001	8.4350004	-10.511	3.7409999
365	1	7	0.083048001	9.1750002	-11.502	2.428
366	1	7	0.081988998	9.3479996	-13.462	3.974
367	1	7	0.081988998	8.4879999	-12.545	5.2550001
368	1	7	0.081988998	10.805	-12.474	5.8150001
369	1	7	0.081988998	10.363	-10.829	5.2540002
370	1	7	0.083048001	11.738	-13.007	3.527
371	1	7	0.083048001	11.411	-11.318	3.0039999
372	1	6	0.049848001	13.794	-11.77	3.7420001
373	1	6	0.049848001	13.193	-12.09	5.4070001
374	1	5	0.32120201	12.213	-9.4790001	4.493
375	1	8	-0.50159502	16.275	1.772	2.451
376	1	4	0.112074	15.42	1.141	3.3659999
377	1	4	-0.140525	15.549	-0.384	3.276
378	1	4	-0.141525	15.087	-0.91299999	1.909
379	1	4	-0.142702	15.309	-2.4260001	1.755
380	1	4	-0.14137299	14.343	-3.257	2.612
381	1	4	-0.14137299	14.507	-4.7550001	2.3280001
382	1	4	-0.142702	13.551	-5.5879998	3.191
383	1	4	-0.141525	13.726	-7.0890002	2.9130001
384	1	4	-0.140525	12.688	-7.954	3.6489999
385	1	4	0.112074	12.882	-7.9829998	5.1719999
386	1	8	-0.50159502	14.163	-8.441	5.5100002
387	1	6	0.079920001	12.109	-8.6409998	5.6290002
388	1	6	0.079920001	12.735	-6.9689999	5.598
389	1	7	0.086860999	11.664	-7.5879998	3.418
390	1	7	0.086860999	12.76	-8.9940004	3.2650001
391	1	7	0.082973003	13.604	-7.2680001	1.822
392	1	7	0.082973003	14.754	-7.408	3.1900001
393	1	7	0.081239	13.762	-5.3800001	4.2620001
394	1	7	0.081239	12.503	-5.29	2.9690001
395	1	7	0.081239	14.297	-4.9510002	1.2539999
396	1	7	0.081239	15.556	-5.0580001	2.5450001
397	1	7	0.081239	13.296	-2.9549999	2.3900001
398	1	7	0.081239	14.545	-3.073	3.6889999
399	1	7	0.081239	16.360001	-2.681	2.013
400	1	7	0.081239	15.153	-2.687	0.685
401	1	7	0.082973003	14.013	-0.67199999	1.752
402	1	7	0.082973003	15.666	-0.40200001	1.109
403	1	7	0.086860999	14.925	-0.82800001	4.0799999
404	1	7	0.086860999	16.607	-0.67299998	3.4579999
405	1	6	0.079920001	14.373	1.442	3.148
406	1	6	0.079920001	15.655	1.474	4.402
407	1	1	-0.62921602	23.783001	-5.5749998	2.017
408	1	2	0.78210801	23.004	-4.763	1.451
409	1	3	-0.470734	22.164	-3.8970001	2.22
410	1	4	0.022645	22.169001	-3.9260001	3.6830001
411	1	4	-0.14646	21.222	-2.8710001	4.2719998
412	1	4	-0.14427499	21.747	-1.442	4.053
413	1	4	-0.14427499	20.888	-0.38299999	4.7610002
414	1	4	-0.14646	19.518999	-0.189	4.092
415	1	4	0.022645	18.75	0.96600002	4.7410002
416	1	3	-0.470734	17.43	1.11	4.131
417	1	2	0.782107	17.233999	1.693	2.8380001
418	1	1	-0.62921602	18.209999	2.119	2.165
419	1	5	0.32120201	16.587	0.83099997	4.6810002
420	1	6	0.049848001	18.625	0.75599998	5.8260002
421	1	6	0.049848001	19.316	1.918	4.6399999
422	1	7	0.083048001	19.663	0.023	3.0109999
423	1	7	0.083048001	18.915001	-1.1160001	4.1929998
424	1	7	0.081988998	20.753	-0.65899998	5.829
425	1	7	0.081988998	21.441	0.58200002	4.73
426	1	7	0.081988998	22.778999	-1.374	4.4619999
427	1	7	0.081988998	21.802	-1.212	2.967
428	1	7	0.083048001	21.125999	-3.0599999	5.3639998
429	1	7	0.083048001	20.218	-2.9920001	3.8139999
430	1	6	0.049848001	21.839001	-4.9310002	4.0229998
431	1	6	0.049848001	23.202	-3.756	4.059
432	1	5	0.32120201	21.528	-3.2490001	1.702
433	1	8	-0.177026	19.051001	-8.0880003	-9.1470003
434	1	4	0.033647999	19.694	-6.941	-8.658
435	1	4	-0.146524	19.941	-7.0510001	-7.1500001
436	1	4	-0.140257	18.622	-7.1040001	-6.3610001
437	1	4	-0.142652	18.841999	-7.3249998	-4.8559999
438	1	4	-0.14137299	19.43	-6.0900002	-4.1560001
439	1	4	-0.14137299	19.507	-6.3039999	-2.6389999
440	1	4	-0.142702	20.103001	-5.0770001	-1.938
441	1	4	-0.141525	20.190001	-5.2989998	-0.421
442	1	4	-0.140525	20.646999	-4.0409999	0.338
443	1	4	0.112074	22.113001	-3.6670001	0.079999998
444	1	8	-0.50159502	22.971001	-4.724	0.41499999
445	1	6	0.079920001	22.372	-2.7620001	0.676
446	1	6	0.079920001	22.261	-3.4030001	-0.98699999
447	1	7	0.086860999	19.997	-3.1819999	0.064000003
448	1	7	0.086860999	20.514999	-4.2189999	1.427
449	1	7	0.082973003	19.183001	-5.5770001	-0.041000001
450	1	7	0.082973003	20.875	-6.1469998	-0.20100001
451	1	7	0.081239	21.118999	-4.8899999	-2.3469999
452	1	7	0.081239	19.465	-4.1900001	-2.1470001
453	1	7	0.081239	18.486	-6.4949999	-2.2420001
454	1	7	0.081239	20.141001	-7.1939998	-2.425
455	1	7	0.081239	18.791	-5.2049999	-4.368
456	1	7	0.081239	20.452	-5.8920002	-4.5419998
457	1	7	0.081239	19.506001	-8.2030001	-4.697
458	1	7	0.081239	17.857	-7.5609999	-4.3969998
459	1	7	0.083146997	18.045	-6.1680002	-6.5240002
460	1	7	0.083146997	18.007	-7.9489999	-6.7410002
461	1	7	0.087893002	20.531	-6.1659999	-6.8340001
462	1	7	0.087893002	20.544001	-7.9619999	-6.9429998
463	1	6	0.079758003	19.059	-6.0539999	-8.8699999
464	1	6	0.079758003	20.664	-6.7919998	-9.1850004
465	1	1	-0.708332	-5.77	1.549	-2.1619999
466	1	2	0.53959101	-4.6149998	1.998	-1.936
467	1	3	-0.526416	-4.026	2.9749999	-2.799
468	1	4	0.028547	-4.7350001	3.4860001	-3.9719999
469	1	4	-0.147737	-3.8829999	4.5229998	-4.7150002
470	1	4	-0.144088	-4.645	5.2210002	-5.8540001
471	1	4	-0.139874	-5.0100002	4.2800002	-7.0219998
472	1	4	-0.124075	-6.4879999	3.8599999	-6.9879999
473	1	4	0.18201099	-6.8109999	2.8859999	-8.1219997
474	1	3	-0.67083001	-8.2259998	2.5339999	-8.0780001
475	1	9	0.591667	-8.6169996	1.332	-7.934
476	1	1	-0.50152302	-8.9969997	0.163	-7.7930002
477	1	6	0.026092	-6.5939999	3.3659999	-9.1000004
478	1	6	0.026092	-6.171	1.978	-8.0290003
479	1	7	0.076715998	-7.1279998	4.763	-7.092
480	1	7	0.076715998	-6.7280002	3.3759999	-6.0180001
481	1	7	0.080718003	-4.8249998	4.8150001	-7.9790001
482	1	7	0.080718003	-4.3559999	3.3800001	-7.02
483	1	7	0.081988998	-3.9820001	6.0219998	-6.25
484	1	7	0.081988998	-5.546	5.7319999	-5.4489999
485	1	7	0.083048001	-3.559	5.302	-3.9920001
486	1	7	0.083048001	-2.9679999	4.0349998	-5.1170001
487	1	6	0.046353001	-5.6890001	3.954	-3.645
488	1	6	0.046353001	-4.961	2.6359999	-4.6500001
489	1	5	0.31461599	-3.0639999	3.3139999	-2.5710001
490	1	8	-0.177026	19.736	-8.8059998	-9.1789999
491	1	4	0.033647999	19.98	-9.1870003	-7.8509998
492	1	4	-0.146524	20.823999	-8.1339998	-7.1240001
493	1	4	-0.140257	22.226999	-8.0080004	-7.7389998
494	1	4	-0.142652	23.055	-6.8829999	-7.098
495	1	4	-0.14137299	23.506001	-7.2199998	-5.6690001
496	1	4	-0.14137299	24.438	-6.1339998	-5.1170001
497	1	4	-0.142652	24.882999	-6.4629998	-3.687
498	1	4	-0.136172	25.806	-5.368	-3.132
499	1	4	-0.168447	26.392	-5.7259998	-1.756
500	1	4	0.086856999	25.35	-5.7340002	-0.62800002
501	1	10	-0.68403202	24.704	-4.494	-0.528
502	1	11	0.37888101	25.357	-3.8659999	-0.12
503	1	6	0.070210002	25.851999	-5.9819999	0.33500001
504	1	6	0.070210002	24.591999	-6.5240002	-0.81
505	1	7	0.090246998	26.884001	-6.7220001	-1.806
506	1	7	0.090246998	27.179001	-4.9829998	-1.503
507	1	7	0.083146997	26.656	-5.2259998	-3.836
508	1	7	0.083146997	25.257	-4.4029999	-3.0739999
509	1	7	0.081239	23.982	-6.552	-3.043
510	1	7	0.081239	25.42	-7.4369998	-3.684
511	1	7	0.081239	25.334999	-6.052	-5.7709999
512	1	7	0.081239	23.907	-5.1570001	-5.1209998
513	1	7	0.081239	24.041	-8.1960001	-5.6700001
514	1	7	0.081239	22.618999	-7.302	-5.0050001
515	1	7	0.081239	22.469	-5.9380002	-7.0970001
516	1	7	0.081239	23.955999	-6.7189999	-7.7290001
517	1	7	0.083146997	22.77	-8.9750004	-7.6469998
518	1	7	0.083146997	22.128	-7.7810001	-8.823
519	1	7	0.087893002	20.907	-8.4379997	-6.0599999
520	1	7	0.087893002	20.301001	-7.1539998	-7.165
521	1	6	0.079758003	20.513	-10.162	-7.848
522	1	6	0.079758003	19.016001	-9.3299999	-7.3119998

Bonds

1	1	1	2
2	2	2	3
3	3	2	38
4	4	3	4
5	5	3	26
6	6	4	5
7	7	4	24
8	7	4	25
9	6	5	6
10	7	5	22
11	7	5	23
12	6	6	7
13	7	6	20
14	7	6	21
15	6	7	8
16	7	7	18
17	7	7	19
18	6	8	9
19	7	8	16
20	7	8	17
21	4	9	10
22	7	9	14
23	7	9	15
24	2	10	11
25	5	10	13
26	1	11	12
27	8	11	466
28	9	27	28
29	3	27	69
30	6	28	29
31	7	28	57
32	7	28	58
33	6	29	30
34	7	29	55
35	7	29	56
36	6	30	31
37	7	30	53
38	7	30	54
39	6	31	32
40	7	31	51
41	7	31	52
42	6	32	33
43	7	32	49
44	7	32	50
45	6	33	34
46	7	33	47
47	7	33	48
48	6	34	35
49	7	34	45
50	7	34	46
51	6	35	36
52	7	35	43
53	7	35	44
54	6	36	37
55	7	36	41
56	7	36	42
57	9	37	38
58	7	37	39
59	7	37	40
60	1	59	60
61	2	60	61
62	3	60	96
63	4	61	62
64	5	61	84
65	6	62	63
66	7	62	82
67	7	62	83
68	6	63	64
69	7	63	80
70	7	63	81
71	6	64	65
72	7	64	78
73	7	64	79
74	6	65	66
75	7	65	76
76	7	65	77
77	6	66	67
78	7	66	74
79	7	66	75
80	4	67	68
81	7	67	72
82	7	67	73
83	2	68	69
84	5	68	71
85	1	69	70
86	9	85	86
87	3	85	127
88	6	86	87
89	7	86	115
90	7	86	116
91	6	87	88
92	7	87	113
93	7	87	114
94	6	88	89
95	7	88	111
96	7	88	112
97	6	89	90
98	7	89	109
99	7	89	110
100	6	90	91
101	7	90	107
102	7	90	108
103	6	91	92
104	7	91	105
105	7	91	106
106	6	92	93
107	7	92	103
108	7	92	104
109	6	93	94
110	7	93	101
111	7	93	102
112	6	94	95
113	7	94	99
114	7	94	100
115	9	95	96
116	7	95	97
117	7	95	98
118	1	117	118
119	2	118	119
120	3	118	154
121	4	119	120
122	5	119	142
123	6	120	121
124	7	120	140
125	7	120	141
126	6	121	122
127	7	121	138
128	7	121	139
129	6	122	123
130	7	122	136
131	7	122	137
132	6	123	124
133	7	123	134
134	7	123	135
135	6	124	125
136	7	124	132
137	7	124	133
138	4	125	126
139	7	125	130
140	7	125	131
141	2	126	127
142	5	126	129
143	1	127	128
144	9	143	144
145	3	143	185
146	6	144	145
147	7	144	173
148	7	144	174
149	6	145	146
150	7	145	171
151	7	145	172
152	6	146	147
153	7	146	169
154	7	146	170
155	6	147	148
156	7	147	167
157	7	147	168
158	6	148	149
159	7	148	165
160	7	148	166
161	6	149	150
162	7	149	163
163	7	149	164
164	6	150	151
165	7	150	161
166	7	150	162
167	6	151	152
168	7	151	159
169	7	151	160
170	6	152	153
171	7	152	157
172	7	152	158
173	9	153	154
174	7	153	155
175	7	153	156
176	1	175	176
177	2	176	177
178	3	176	212
179	4	177	178
180	5	177	200
181	6	178	179
182	7	178	198
183	7	178	199
184	6	179	180
185	7	179	196
186	7	179	197
187	6	180	181
188	7	180	194
189	7	180	195
190	6	181	182
191	7	181	192
192	7	181	193
193	6	182	183
194	7	182	190
195	7	182	191
196	4	183	184
197	7	183	188
198	7	183	189
199	2	184	185
200	5	184	187
201	1	185	186
202	9	201	202
203	3	201	243
204	6	202	203
205	7	202	231
206	7	202	232
207	6	203	204
208	7	203	229
209	7	203	230
210	6	204	205
211	7	204	227
212	7	204	228
213	6	205	206
214	7	205	225
215	7	205	226
216	6	206	207
217	7	206	223
218	7	206	224
219	6	207	208
220	7	207	221
221	7	207	222
222	6	208	209
223	7	208	219
224	7	208	220
225	6	209	210
226	7	209	217
227	7	209	218
228	6	210	211
229	7	210	215
230	7	210	216
231	9	211	212
232	7	211	213
233	7	211	214
234	1	233	234
235	2	234	235
236	3	234	270
237	4	235	236
238	5	235	258
239	6	236	237
240	7	236	256
241	7	236	257
242	6	237	238
243	7	237	254
244	7	237	255
245	6	238	239
246	7	238	252
247	7	238	253
248	6	239	240
249	7	239	250
250	7	239	251
251	6	240	241
252	7	240	248
253	7	240	249
254	4	241	242
255	7	241	246
256	7	241	247
257	2	242	243
258	5	242	245
259	1	243	244
260	9	259	260
261	3	259	301
262	6	260	261