Title

111 atoms
118 bonds
205 angles
333 dihedrals
132 impropers

9 atom types
13 bond types
9 angle types
19 dihedral types
3 improper types
-9.581999779 90.41800022 xlo xhi
-2.191999912 97.80800009 ylo yhi
-12.65299988 87.34700012 zlo zhi
0.0 0.0 0.0 xy xz yz

Masses

1	14.00672
2	12.01078
3	1.007947
4	1.007947
5	15.99943
6	12.01078
7	1.007947
8	15.99943
9	1.007947


Pair Coeffs

1	0.16769152	3.206876
2	0.086879315	3.4806469
3	0.015611343	2.5725815
4	0.014090815	1.1034277
5	0.2102061	3.0398122
6	0.10884061	3.3795318
7	0.015779483	2.6445434
8	0.20947353	2.99716
9	1.2326e-05	0.53453923

Bond Coeffs

1 harmonic	390.03554688505	1.390160554689
2 harmonic	505.144496193	1.019481865027
3 harmonic	422.7150220147	1.421786517481
4 harmonic	360.7852444772	1.387193227181
5 harmonic	397.2545789619	1.085358495916
6 harmonic	492.76746816345	1.381897776683
7 harmonic	582.698766451	1.225198386222
8 harmonic	279.1350963404	1.454628925034
9 harmonic	289.73813263395	1.498646816465
10 harmonic	264.62148576755	1.52190126495
11 harmonic	370.04670688625	1.093899492634
12 harmonic	385.7604595587	1.369745182308
13 harmonic	543.5267831885	0.9716763312559


Angle Coeffs

1 harmonic	57.8982893754	126.8062420451
2 harmonic	55.42182150775	117.3465570514
3 harmonic	63.44422595415	115.5071327674
4 harmonic	34.066775159195	129.1835929926
5 harmonic	53.20531626545	116.5475862634
6 harmonic	14.32262199324	138.3184368373
7 harmonic	48.776492647595	115.6030999533
8 harmonic	65.09061609600001	110.3538806181
9 harmonic	201.41175231035	127.4691416191


Dihedral Coeffs

1 fourier 1	3.661930099076	2	180
2 fourier 1	1.193093382682	2	180
3 fourier 1	0.02021088501612	1	0
4 fourier 1	3.101948770557	2	180
5 fourier 1	-0.4252153282372	1	0
6 fourier 1	1.809047390003	2	180
7 fourier 1	-0.04816277792592	1	0
8 fourier 1	0.9974165607242	2	180
9 fourier 1	2.348375642009	2	180
10 fourier 1	1.256156174911	1	0
11 fourier 1	0.02664938770063	3	0
12 fourier 1	0.1155372516788	3	0
13 fourier 1	0.09223874044423	3	0
14 fourier 1	0.3159935921949	2	180
15 fourier 1	0.3247796806857	1	180
16 fourier 1	0.1040663847541	3	0
17 fourier 1	2.687457892086	2	180
18 fourier 1	2.772607909663	2	180
19 fourier 1	0.09692684957115	1	0


Improper Coeffs

1 0.3666666666666667	-1	2
2 0.3333333333333333	-1	2
3 3.5	-1	2


Atoms

1	1	1	-0.41015401	2.842	0.102	0.090000004
2	1	2	0.086103998	1.415	0.030999999	0.046
3	1	2	-0.37280199	0.79000002	-1.158	0.079000004
4	1	3	0.22499201	1.359	-2.0769999	0.14
5	1	2	-0.330654	-0.68599999	-1.224	0.033
6	1	3	0.221131	-1.1720001	-2.1919999	0.061000001
7	1	2	0.15014499	-1.4119999	-0.097000003	-0.043000001
8	1	1	-0.53045702	-2.8399999	-0.155	-0.088
9	1	4	0.32144901	-3.3440001	-1.069	-0.063000001
10	1	2	-0.330654	-0.72299999	1.214	-0.079000004
11	1	3	0.221131	-1.301	2.128	-0.14
12	1	2	-0.37280199	0.61400002	1.275	-0.037
13	1	3	0.22499201	1.11	2.237	-0.064999998
14	1	4	0.375213	3.424	-0.764	0.149
15	1	2	0.76978397	-3.4130001	0.73900002	-0.148
16	1	5	-0.65103	-3.642	1.387	0.90700001
17	1	2	-0.368907	-3.928	1.205	-1.448
18	1	2	-0.075631	-3.677	0.50099999	-2.562
19	1	3	0.22715899	-3.098	-0.41299999	-2.52
20	1	2	-0.246168	-4.1890001	0.95899999	-3.8710001
21	1	3	0.21767201	-3.973	0.338	-4.7270002
22	1	2	-0.206497	-4.895	2.1059999	-3.977
23	1	6	0.026083	-5.4819999	2.6040001	-5.309
24	1	6	-0.130759	-4.8429999	1.956	-6.5609999
25	1	7	0.089703999	-5.098	0.87699997	-6.625
26	1	7	0.089703999	-5.2199998	2.4389999	-7.4889998
27	1	7	0.089703999	-3.737	2.066	-6.539
28	1	2	-0.121525	-5.3249998	4.0879998	-5.427
29	1	2	-0.148408	-4.1820002	4.7880001	-5.3769999
30	1	3	0.21720099	-3.233	4.2909999	-5.224
31	1	2	0.003459	-4.2360001	6.2600002	-5.5359998
32	1	3	0.2175	-3.313	6.8239999	-5.4889998
33	1	2	-0.34365401	-5.4169998	6.882	-5.7379999
34	1	2	0.58752799	-5.461	8.3459997	-5.8990002
35	1	5	-0.50493902	-6.5539999	8.9420004	-6.0879998
36	1	2	0.074928001	-6.6690001	6.0749998	-5.8000002
37	1	3	0.211502	-7.6240001	6.553	-5.974
38	1	2	-0.178407	-6.5949998	4.7449999	-5.6389999
39	1	6	-0.026254	-7.7179999	3.7590001	-5.6830001
40	1	6	-0.13033301	-8.3260002	3.714	-7.098
41	1	7	0.093892999	-8.7749996	4.6950002	-7.3639998
42	1	7	0.093892999	-7.5469999	3.47	-7.8520002
43	1	7	0.093892999	-9.1219997	2.941	-7.151
44	1	6	-0.13033301	-8.8009996	4.1149998	-4.6479998
45	1	7	0.093892999	-9.2910004	5.079	-4.902
46	1	7	0.093892999	-8.3570004	4.2049999	-3.632
47	1	7	0.093892999	-9.5819998	3.325	-4.6220002
48	1	6	-0.180198	-7.033	2.3989999	-5.3309999
49	1	7	0.132295	-7.3280001	1.599	-6.046
50	1	7	0.132295	-7.3870001	2.036	-4.3390002
51	1	2	-0.246168	-5.191	2.865	-2.727
52	1	3	0.21767201	-5.79	3.766	-2.766
53	1	2	-0.075631	-4.7329998	2.4449999	-1.5420001
54	1	3	0.227158	-4.9619999	3.017	-0.65200001
55	1	1	-0.41015401	3.3269999	1.027	0.064000003
56	1	2	0.086103998	4.7410002	1.098	-0.132
57	1	2	-0.33663899	5.3660002	2.286	-0.16500001
58	1	3	0.22499201	4.8070002	3.2060001	-0.044
59	1	2	-0.411838	6.8280001	2.3529999	-0.368
60	1	3	0.236129	7.3150001	3.3199999	-0.39300001
61	1	2	0.26738399	7.5419998	1.226	-0.52100003
62	1	1	-0.842839	8.9569998	1.283	-0.71799999
63	1	4	0.36991701	9.5109997	0.40599999	-0.83600003
64	1	4	0.36991701	9.4610004	2.198	-0.74699998
65	1	2	-0.411838	6.8530002	-0.086000003	-0.484
66	1	3	0.236129	7.421	-0.99900001	-0.60600001
67	1	2	-0.33663899	5.5279999	-0.146	-0.30000001
68	1	3	0.22499201	5.0320001	-1.108	-0.27399999
69	1	4	0.375213	2.7539999	1.892	0.185
70	1	2	0.59302801	-4.5489998	8.927	-5.855
71	1	5	-0.51552099	-3.655	8.5970001	-5.0300002
72	1	2	-0.33220601	-4.3730001	10.082	-6.7540002
73	1	2	0.0087510003	-3.256	10.827	-6.7329998
74	1	3	0.225125	-2.4449999	10.599	-6.052
75	1	2	-0.239408	-3.109	11.978	-7.645
76	1	3	0.21767201	-2.1849999	12.542	-7.6100001
77	1	2	-0.206497	-4.0939999	12.32	-8.5059996
78	1	6	0.026083	-3.8989999	13.509	-9.4630003
79	1	6	-0.130759	-5.1950002	13.926	-10.194
80	1	7	0.089703999	-6.007	14.14	-9.4659996
81	1	7	0.089703999	-5.5320001	13.128	-10.889
82	1	7	0.089703999	-5.026	14.843	-10.8
83	1	2	-0.121525	-3.375	14.704	-8.7270002
84	1	2	-0.16780899	-3.9349999	15.315	-7.6729999
85	1	3	0.21720099	-4.8600001	14.95	-7.2470002
86	1	2	-0.05779	-3.2650001	16.503	-7.0949998
87	1	3	0.23383901	-3.72	16.987	-6.2399998
88	1	2	-0.225508	-2.112	16.969	-7.6300001
89	1	2	0.83685702	-1.433	18.156	-7.066
90	1	5	-0.472626	-1.9170001	18.761	-6.0700002
91	1	8	-0.66280502	-0.248	18.615	-7.6339998
92	1	9	0.42036301	0.228	19.427	-7.2579999
93	1	2	0.0090859998	-1.524	16.271	-8.8070002
94	1	3	0.226704	-0.60900003	16.631001	-9.2609997
95	1	2	-0.17266899	-2.1429999	15.189	-9.3039999
96	1	6	-0.026254	-1.729	14.363	-10.481
97	1	6	-0.13033301	-0.30199999	13.815	-10.29
98	1	7	0.093892999	0.442	14.64	-10.275
99	1	7	0.093892999	-0.223	13.255	-9.3319998
100	1	7	0.093892999	-0.039999999	13.127	-11.122
101	1	6	-0.13033301	-1.809	15.203	-11.769
102	1	7	0.093892999	-2.8329999	15.613	-11.906
103	1	7	0.093892999	-1.094	16.052	-11.731
104	1	7	0.093892999	-1.5599999	14.578	-12.653
105	1	6	-0.180198	-2.7750001	13.202	-10.509
106	1	7	0.132295	-3.1949999	13.061	-11.53
107	1	7	0.132295	-2.2809999	12.232	-10.273
108	1	2	-0.239408	-5.323	11.473	-8.5310001
109	1	3	0.21767201	-6.1350002	11.681	-9.2119999
110	1	2	0.0087510003	-5.4520001	10.427	-7.7049999
111	1	3	0.225125	-6.3540001	9.8290005	-7.7389998

Bonds

1	1	1	2
2	2	1	14
3	3	1	55
4	4	2	3
5	4	2	12
6	5	3	4
7	4	3	5
8	5	5	6
9	4	5	7
10	1	7	8
11	4	7	10
12	2	8	9
13	6	8	15
14	5	10	11
15	4	10	12
16	5	12	13
17	7	15	16
18	8	15	17
19	4	17	18
20	4	17	53
21	5	18	19
22	4	18	20
23	5	20	21
24	4	20	22
25	9	22	23
26	4	22	51
27	10	23	24
28	9	23	28
29	10	23	48
30	11	24	25
31	11	24	26
32	11	24	27
33	4	28	29
34	4	28	38
35	5	29	30
36	4	29	31
37	5	31	32
38	4	31	33
39	8	33	34
40	4	33	36
41	7	34	35
42	8	34	70
43	5	36	37
44	4	36	38
45	9	38	39
46	10	39	40
47	10	39	44
48	10	39	48
49	11	40	41
50	11	40	42
51	11	40	43
52	11	44	45
53	11	44	46
54	11	44	47
55	11	48	49
56	11	48	50
57	5	51	52
58	4	51	53
59	5	53	54
60	1	55	56
61	2	55	69
62	4	56	57
63	4	56	67
64	5	57	58
65	4	57	59
66	5	59	60
67	4	59	61
68	1	61	62
69	4	61	65
70	2	62	63
71	2	62	64
72	5	65	66
73	4	65	67
74	5	67	68
75	7	70	71
76	8	70	72
77	4	72	73
78	4	72	110
79	5	73	74
80	4	73	75
81	5	75	76
82	4	75	77
83	9	77	78
84	4	77	108
85	10	78	79
86	9	78	83
87	10	78	105
88	11	79	80
89	11	79	81
90	11	79	82
91	4	83	84
92	4	83	95
93	5	84	85
94	4	84	86
95	5	86	87
96	4	86	88
97	8	88	89
98	4	88	93
99	7	89	90
100	12	89	91
101	13	91	92
102	5	93	94
103	4	93	95
104	9	95	96
105	10	96	97
106	10	96	101
107	10	96	105
108	11	97	98
109	11	97	99
110	11	97	100
111	11	101	102
112	11	101	103
113	11	101	104
114	11	105	106
115	11	105	107
116	5	108	109
117	4	108	110
118	5	110	111

Angles

1	4	10	12	13
2	5	38	39	44
3	1	31	33	36
4	1	71	70	72
5	4	74	73	75
6	9	90	89	91
7	5	96	105	107
8	4	73	75	76
9	4	88	93	94
10	4	37	36	38
11	1	16	15	17
12	5	38	39	40
13	5	39	40	43
14	4	57	59	60
15	1	23	28	38
16	1	2	12	10
17	1	29	28	38
18	1	83	84	86
19	1	62	61	65
20	4	85	84	86
21	1	83	95	93
22	5	78	105	106
23	1	59	61	62
24	3	7	8	9
25	1	73	75	77
26	4	108	110	111
27	1	35	34	70
28	1	23	22	51
29	1	17	53	51
30	1	2	3	5
31	3	2	1	14
32	4	58	57	59
33	1	22	51	53
34	3	61	62	63
35	5	78	79	81
36	4	56	67	68
37	5	23	24	25
38	7	42	40	43
39	5	38	39	48
40	1	5	7	8
41	5	22	23	28
42	5	39	44	45
43	1	29	31	33
44	1	84	83	95
45	4	84	86	87
46	4	60	59	61
47	5	23	48	39
48	4	61	65	66
49	4	19	18	20
50	4	17	53	54
51	4	51	53	54
52	1	33	34	70
53	5	22	23	24
54	3	61	62	64
55	1	18	17	53
56	4	52	51	53
57	7	41	40	43
58	4	72	73	74
59	5	78	79	82
60	3	56	55	69
61	1	5	7	10
62	1	34	70	71
63	7	45	44	47
64	5	39	44	46
65	5	97	96	101
66	1	20	22	51
67	2	1	55	56
68	5	78	105	96
69	1	1	2	3
70	1	55	56	57
71	1	61	65	67
72	1	56	67	65
73	5	79	78	105
74	4	17	18	19
75	1	33	34	35
76	2	7	8	15
77	1	78	83	95
78	7	102	101	103
79	1	72	73	75
80	4	4	3	5
81	4	87	86	88
82	7	81	79	82
83	1	88	93	95
84	4	18	20	21
85	7	49	48	50
86	1	78	77	108
87	1	88	89	90
88	1	57	59	61
89	5	97	96	105
90	4	7	10	11
91	5	22	23	48
92	1	70	72	73
93	4	21	20	22
94	3	63	62	64
95	5	24	23	48
96	7	25	24	26
97	1	20	22	23
98	7	26	24	27
99	4	94	93	95
100	8	89	91	92
101	1	28	38	39
102	5	24	23	28
103	5	78	105	107
104	5	96	101	104
105	7	98	97	99
106	1	73	72	110
107	4	6	5	7
108	1	18	20	22
109	5	96	97	98
110	4	66	65	67
111	3	1	55	69
112	1	31	33	34
113	5	83	78	105
114	4	33	36	37
115	4	65	67	68
116	4	22	51	52
117	4	32	31	33
118	4	72	110	111
119	4	56	57	58
120	5	23	24	26
121	1	84	86	88
122	5	39	40	41
123	5	28	23	48
124	1	1	2	12
125	7	98	97	100
126	1	75	77	108
127	4	77	108	109
128	1	57	56	67
129	3	14	1	55
130	1	33	36	38
131	1	28	38	36
132	3	9	8	15
133	6	78	83	84
134	5	96	105	106
135	5	23	24	27
136	1	34	70	72
137	5	39	44	47
138	1	15	17	53
139	4	28	29	30
140	4	76	75	77
141	5	39	40	42
142	1	83	95	96
143	1	89	88	93
144	5	95	96	101
145	1	8	7	10
146	7	80	79	81
147	1	77	108	110
148	4	3	5	6
149	1	72	110	108
150	4	83	84	85
151	4	11	10	12
152	1	17	18	20
153	2	2	1	55
154	5	79	78	83
155	5	95	96	97
156	1	88	89	91
157	1	70	72	110
158	5	77	78	105
159	1	15	17	18
160	1	28	29	31
161	4	2	3	4
162	1	7	10	12
163	1	3	2	12
164	7	80	79	82
165	5	95	96	105
166	5	40	39	48
167	1	3	5	7
168	6	23	28	29
169	5	78	79	80
170	5	101	96	105
171	7	103	101	104
172	5	39	48	49
173	7	106	105	107
174	7	25	24	27
175	4	29	31	32
176	1	75	77	78
177	5	96	101	102
178	5	23	48	49
179	4	2	12	13
180	4	30	29	31
181	1	8	15	16
182	5	40	39	44
183	5	96	97	99
184	1	86	88	93
185	4	109	108	110
186	5	77	78	83
187	7	102	101	104
188	6	93	95	96
189	7	41	40	42
190	7	99	97	100
191	6	36	38	39
192	5	39	48	50
193	1	56	57	59
194	7	45	44	46
195	1	86	88	89
196	5	44	39	48
197	7	46	44	47
198	5	96	101	103
199	5	23	48	50
200	1	59	61	65
201	1	55	56	67
202	5	77	78	79
203	1	8	15	17
204	5	96	97	100
205	1	34	33	36

Dihedrals

1	1	78	77	108	110
2	16	46	44	39	48
3	16	79	78	105	107
4	1	8	7	10	12
5	1	60	59	61	65
6	12	95	96	97	100
7	13	23	48	39	44
7	14	23	48	39	44
7	15	23	48	39	44
8	1	23	28	38	39
9	1	70	72	73	74
10	1	84	83	95	93
11	1	88	93	95	96
12	1	17	18	20	21
13	1	85	84	83	95
14	16	101	96	105	106
15	1	86	88	93	94
16	1	5	7	10	11
17	16	44	39	48	49
18	11	36	38	39	40
19	1	74	73	75	76
20	12	38	39	48	50
21	1	7	10	12	13
22	1	87	86	88	93
23	1	17	53	51	22
24	1	4	3	5	7
25	12	38	39	40	42
26	1	73	75	77	108
27	11	20	22	23	24
28	11	28	38	39	40
29	1	32	31	33	34
30	16	43	40	39	48
31	11	24	23	22	51
32	2	63	62	61	65
33	16	100	97	96	105
34	1	18	20	22	23
35	1	15	17	18	19
36	11	22	23	28	29
37	1	11	10	12	13
38	12	77	78	79	82
39	11	48	23	22	51
40	12	77	78	105	96
41	1	78	83	84	85
42	1	20	22	51	52
43	1	28	38	36	37
44	16	102	101	96	105
45	12	38	39	44	46
46	8	16	15	17	18
47	2	10	7	8	15
48	1	78	77	108	109
49	1	34	33	36	37
50	16	79	78	105	106
51	8	36	33	34	70
52	12	95	96	97	99
53	16	26	24	23	48
54	1	15	17	53	51
55	16	80	79	78	105
56	12	26	24	23	28
57	11	79	78	83	84
58	1	30	29	31	33
59	1	2	12	10	7
60	1	85	84	86	88
61	1	52	51	53	54
62	1	89	88	93	94
63	2	3	2	1	55
64	12	95	96	101	104
65	1	72	110	108	77
66	1	6	5	7	10
67	1	28	29	31	33
68	1	84	86	88	89
69	1	59	57	56	67
70	12	38	39	40	41
71	1	75	73	72	110
72	1	1	2	3	4
73	1	21	20	22	51
74	16	24	23	48	50
75	8	34	70	72	73
76	11	28	23	22	51
77	11	24	23	28	38
78	1	84	86	88	93
79	12	28	23	48	50
80	12	77	78	79	81
81	2	1	55	56	67
82	13	79	78	105	96
82	14	79	78	105	96
82	15	79	78	105	96
83	1	29	28	38	39
84	13	23	48	39	40
84	14	23	48	39	40
84	15	23	48	39	40
85	16	82	79	78	105
86	2	12	2	1	55
87	16	41	40	39	48
88	12	95	96	105	107
89	1	55	56	57	58
90	1	18	17	53	54
91	12	83	78	105	107
92	12	38	39	44	45
93	16	40	39	44	46
94	2	3	2	1	14
95	1	20	18	17	53
96	16	97	96	101	104
97	1	87	86	88	89
98	12	22	23	24	27
99	16	100	97	96	101
100	11	75	77	78	79
101	11	38	28	23	48
102	12	77	78	105	106
103	12	95	96	101	103
104	1	19	18	20	21
105	1	29	31	33	36
106	1	86	84	83	95
107	1	18	17	53	51
108	1	23	28	29	31
109	1	30	29	31	32
110	16	43	40	39	44
111	1	3	5	7	10
112	1	94	93	95	96
113	1	62	61	65	67
114	11	75	77	78	83
115	1	28	29	31	32
116	1	78	83	95	96
117	1	31	33	36	38
118	8	34	70	72	110
119	1	73	72	110	108
120	1	29	28	38	36
121	1	56	67	65	61
122	11	93	95	96	105
123	2	12	2	1	14
124	1	83	84	86	88
125	16	97	96	105	107
126	16	24	23	48	49
127	1	28	38	36	33
128	16	27	24	23	48
129	3	14	1	55	56
130	11	83	78	77	108
131	11	22	23	28	38
132	8	71	70	72	73
133	8	31	33	34	35
134	12	27	24	23	28
135	1	1	2	12	13
136	2	64	62	61	65
137	2	1	55	56	57
138	4	7	8	15	16
138	5	7	8	15	16
139	1	32	31	33	36
140	8	33	34	70	72
141	12	22	23	48	50
142	1	58	57	56	67
143	12	95	96	105	106
144	16	98	97	96	105
145	1	15	17	53	54
146	1	21	20	22	23
147	1	58	57	59	61
148	2	59	61	62	64
149	1	76	75	77	78
150	12	83	78	105	106
151	1	59	61	65	67
152	16	47	44	39	48
153	1	72	73	75	77
154	3	14	1	55	69
155	16	40	39	48	50
156	16	40	39	44	45
157	2	57	56	55	69
158	1	8	7	10	11
159	1	78	83	95	93
160	16	103	101	96	105
161	18	90	89	91	92
161	19	90	89	91	92
162	1	1	2	12	10
163	1	2	3	5	7
164	1	19	18	17	53
165	16	81	79	78	105
166	1	55	56	67	65
167	1	23	28	29	30
168	2	67	56	55	69
169	11	36	38	39	48
170	12	38	39	48	49
171	17	88	89	91	92
172	1	22	51	53	54
173	1	31	33	36	37
174	1	4	3	5	6
175	8	8	15	17	53
176	3	2	1	55	56
177	1	70	72	73	75
178	8	91	89	88	93
179	16	101	96	105	107
180	1	86	88	93	95
181	16	41	40	39	44
182	8	71	70	72	110
183	1	5	7	10	12
184	11	29	28	23	48
185	16	97	96	105	106
186	1	4	3	2	12
187	13	24	23	48	39
187	14	24	23	48	39
187	15	24	23	48	39
188	11	93	95	96	97
189	16	44	39	48	50
190	1	83	95	93	88
191	12	83	78	105	96
192	1	66	65	67	68
193	11	77	78	83	95
194	1	61	65	67	68
195	12	28	23	48	39
196	12	38	39	40	43
197	3	2	1	55	69
198	1	73	72	110	111
199	12	23	48	39	38
200	8	33	34	70	71
201	8	35	34	70	72
202	12	78	105	96	95
203	1	58	57	59	60
204	2	59	61	62	63
205	11	93	95	96	101
206	16	40	39	48	49
207	8	16	15	17	53
208	1	70	72	110	108
209	1	57	59	61	62
210	12	95	96	97	98
211	1	76	75	77	108
212	1	85	84	86	87
213	16	45	44	39	48
214	16	99	97	96	101
215	16	98	97	96	101
216	1	83	95	93	94
217	11	83	95	96	101
218	12	38	39	44	47
219	1	23	22	51	53
220	1	34	33	36	38
221	1	5	3	2	12
222	2	9	8	7	10
223	1	55	56	67	68
224	13	78	105	96	101
224	14	78	105	96	101
224	15	78	105	96	101
225	1	31	29	28	38
226	1	89	88	93	95
227	1	30	29	28	38
228	1	20	22	51	53
229	1	57	56	67	65
230	12	28	23	48	49
231	12	77	78	79	80
232	16	97	96	101	103
233	8	8	15	17	18
234	1	1	2	3	5
235	1	3	5	7	8
236	1	33	36	38	39
237	16	99	97	96	105
238	8	35	34	70	71
239	12	22	23	48	39
240	11	83	95	96	105
241	1	23	22	51	52
242	1	72	110	108	109
243	1	77	108	110	111
244	12	81	79	78	83
245	11	75	77	78	105
246	12	80	79	78	83
247	11	36	38	39	44
248	11	79	78	77	108
249	8	86	88	89	91
250	12	22	23	24	26
251	11	20	22	23	48
252	12	95	96	101	102
253	1	60	59	61	62
254	11	95	83	78	105
255	11	20	22	23	28
256	1	56	57	59	61
257	1	23	28	38	36
258	11	28	38	39	44
259	6	9	8	15	17
259	7	9	8	15	17
260	1	75	77	108	110
261	16	104	101	96	105
262	1	55	56	57	59
263	16	40	39	44	47
264	1	70	72	110	111
265	16	25	24	23	48
266	1	57	59	61	65
267	1	62	61	65	66
268	12	25	24	23	28
269	12	77	78	105	107
270	1	19	18	20	22
271	11	79	78	83	95
272	11	28	38	39	48
273	1	17	18	20	22
274	1	83	84	86	87
275	1	2	12	10	11
276	1	73	75	77	78
277	12	82	79	78	83
278	2	5	7	8	9
279	1	74	73	75	77
280	1	18	20	22	51
281	1	17	53	51	52
282	16	42	40	39	44
283	8	31	33	34	70
284	8	90	89	88	93
285	11	77	78	83	84
286	16	97	96	101	102
287	1	37	36	38	39
288	1	84	83	95	96
289	12	22	23	48	49
290	1	3	2	12	13
291	11	84	83	78	105
292	1	59	61	65	66
293	8	35	34	33	36
294	1	72	73	75	76
295	16	42	40	39	48
296	11	83	95	96	97
297	1	6	5	7	8
298	8	86	88	89	90
299	2	5	7	8	15
300	1	57	56	67	68
301	1	15	17	18	20
302	12	22	23	24	25
303	11	24	23	28	29
304	1	2	3	5	6
305	1	109	108	110	111
306	1	56	57	59	60
307	6	7	8	15	17
307	7	7	8	15	17
308	1	29	31	33	34
309	1	56	67	65	66
310	1	78	83	84	86
311	9	9	8	15	16
311	10	9	8	15	16
312	13	78	105	96	97
312	14	78	105	96	97
312	15	78	105	96	97
313	1	3	2	12	10
314	1	75	77	108	109
315	1	74	73	72	110
316	11	105	78	77	108

Impropers

3	1	95	93	96	83
5	1	86	88	84	87
8	1	77	108	75	78
16	1	7	10	5	8
17	1	36	38	33	37
20	1	22	20	23	51
24	2	8	9	15	7
25	1	110	108	111	72
27	1	28	29	38	23
32	1	5	7	3	6
34	1	108	109	110	77
36	1	15	16	17	8
44	1	10	11	12	7
49	1	17	15	18	53
53	2	62	64	61	63
58	1	34	70	33	35
59	1	57	56	58	59
60	1	31	29	32	33
62	1	34	35	70	33
67	1	17	18	53	15
71	1	72	110	70	73
82	1	65	67	61	66
88	1	18	17	19	20
89	1	34	33	35	70
92	1	110	72	108	111
100	1	67	65	68	56
101	1	88	86	89	93
105	2	62	63	64	61
111	1	10	7	11	12
118	1	12	13	2	10
123	1	84	86	83	85
126	1	2	3	12	1
127	1	75	76	77	73
128	1	20	18	21	22
129	1	12	10	13	2
135	1	70	71	72	34
144	1	59	60	61	57
148	1	77	78	108	75
153	2	1	2	14	55
157	1	38	39	28	36
159	1	12	2	10	13
166	1	33	31	34	36
168	2	8	7	9	15
177	1	18	19	20	17
180	1	83	78	84	95
184	1	28	23	29	38
187	1	83	84	95	78
192	1	56	67	55	57
195	1	73	74	75	72
197	1	72	70	73	110
204	1	20	22	18	21
206	1	53	17	51	54
208	1	5	6	7	3
212	1	86	84	87	88
214	1	67	56	65	68
216	3	89	91	88	90
224	1	70	34	71	72
226	1	95	83	93	96
231	1	18	20	17	19
234	1	7	8	10	5
256	1	88	89	93	86
260	1	15	17	8	16
261	2	8	15	7	9
263	1	51	53	22	52
265	3	89	90	91	88
267	1	65	61	66	67
270	1	3	4	5	2
279	2	1	14	55	2
284	1	53	54	17	51
286	1	31	32	33	29
289	1	95	96	83	93
291	1	51	22	52	53
295	1	38	28	36	39
305	1	38	36	39	28
308	1	110	111	72	108
317	1	29	28	30	31
321	2	62	61	63	64
322	1	108	77	109	110
328	1	22	23	51	20
330	1	17	53	15	18
347	1	29	30	31	28
348	1	51	52	53	22
351	1	56	55	57	67
352	1	84	85	86	83
359	1	31	33	29	32
361	1	67	68	56	65
363	3	89	88	90	91
365	1	7	5	8	10
370	1	65	66	67	61
374	2	55	1	56	69
378	1	10	12	7	11
384	1	75	73	76	77
387	1	84	83	85	86
397	1	2	1	3	12
400	1	61	65	59	62
402	1	3	2	4	5
405	1	2	12	1	3
408	1	72	73	110	70
414	1	33	34	36	31
418	1	33	36	31	34
419	1	59	57	60	61
421	1	86	87	88	84
425	1	93	88	94	95
426	1	108	110	77	109
428	2	55	69	1	56
437	2	55	56	69	1
444	1	73	72	74	75
452	1	22	51	20	23
458	1	36	37	38	33
459	1	88	93	86	89
466	1	93	95	88	94
477	1	28	38	23	29
484	2	1	55	2	14
488	1	20	21	22	18
490	1	57	58	59	56
496	1	93	94	95	88
501	1	61	62	65	59
502	1	56	57	67	55
503	1	3	5	2	4
504	1	70	72	34	71
507	1	57	59	56	58
508	1	75	77	73	76
511	1	15	8	16	17
513	1	5	3	6	7
514	1	36	33	37	38
518	1	83	95	78	84
520	1	73	75	72	74
523	1	29	31	28	30
529	1	59	61	57	60
532	1	53	51	54	17
550	1	61	59	62	65
552	1	77	75	78	108
