Title

111 atoms
118 bonds
205 angles
333 dihedrals
132 impropers

9 atom types
13 bond types
9 angle types
19 dihedral types
3 improper types
-9.581999779 90.41800022 xlo xhi
-2.191999912 97.80800009 ylo yhi
-12.65299988 87.34700012 zlo zhi
0.0 0.0 0.0 xy xz yz

Masses

1	14.00672
2	12.01078
3	1.007947
4	1.007947
5	15.99943
6	12.01078
7	1.007947
8	15.99943
9	1.007947


Pair Coeffs

1	0.16769152	3.206876
2	0.086879315	3.4806469
3	0.015611343	2.5725815
4	0.014090815	1.1034277
5	0.2102061	3.0398122
6	0.10884061	3.3795318
7	0.015779483	2.6445434
8	0.20947353	2.99716
9	1.2326e-05	0.53453923

Bond Coeffs

1 harmonic	390.03554688505	1.390160554689
2 harmonic	505.144496193	1.019481865027
3 harmonic	422.7150220147	1.421786517481
4 harmonic	360.7852444772	1.387193227181
5 harmonic	397.2545789619	1.085358495916
6 harmonic	492.76746816345	1.381897776683
7 harmonic	582.698766451	1.225198386222
8 harmonic	279.1350963404	1.454628925034
9 harmonic	289.73813263395	1.498646816465
10 harmonic	264.62148576755	1.52190126495
11 harmonic	370.04670688625	1.093899492634
12 harmonic	385.7604595587	1.369745182308
13 harmonic	543.5267831885	0.9716763312559


Angle Coeffs

1 harmonic	57.8982893754	126.8062420451
2 harmonic	55.42182150775	117.3465570514
3 harmonic	63.44422595415	115.5071327674
4 harmonic	34.066775159195	129.1835929926
5 harmonic	53.20531626545	116.5475862634
6 harmonic	14.32262199324	138.3184368373
7 harmonic	48.776492647595	115.6030999533
8 harmonic	65.09061609600001	110.3538806181
9 harmonic	201.41175231035	127.4691416191


Dihedral Coeffs

1 fourier 1	3.661930099076	2	180
2 fourier 1	1.193093382682	2	180
3 fourier 1	0.02021088501612	1	0
4 fourier 1	3.101948770557	2	180
5 fourier 1	-0.4252153282372	1	0
6 fourier 1	1.809047390003	2	180
7 fourier 1	-0.04816277792592	1	0
8 fourier 1	0.9974165607242	2	180
9 fourier 1	2.348375642009	2	180
10 fourier 1	1.256156174911	1	0
11 fourier 1	0.02664938770063	3	0
12 fourier 1	0.1155372516788	3	0
13 fourier 1	0.09223874044423	3	0
14 fourier 1	0.3159935921949	2	180
15 fourier 1	0.3247796806857	1	180
16 fourier 1	0.1040663847541	3	0
17 fourier 1	2.687457892086	2	180
18 fourier 1	2.772607909663	2	180
19 fourier 1	0.09692684957115	1	0


Improper Coeffs

1 0.3666666666666667	-1	2
2 0.3333333333333333	-1	2
3 3.5	-1	2


Atoms

1	1	1	-0.41015401	2.842	0.102	0.090000004
2	1	2	0.086103998	1.415	0.030999999	0.046
3	1	2	-0.37280199	0.79000002	-1.158	0.079000004
4	1	3	0.22499201	1.359	-2.0769999	0.14
5	1	2	-0.330654	-0.68599999	-1.224	0.033
6	1	3	0.221131	-1.1720001	-2.1919999	0.061000001
7	1	2	0.15014499	-1.4119999	-0.097000003	-0.043000001
8	1	1	-0.53045702	-2.8399999	-0.155	-0.088
9	1	4	0.32144901	-3.3440001	-1.069	-0.063000001
10	1	2	-0.330654	-0.72299999	1.214	-0.079000004
11	1	3	0.221131	-1.301	2.128	-0.14
12	1	2	-0.37280199	0.61400002	1.275	-0.037
13	1	3	0.22499201	1.11	2.237	-0.064999998
14	1	4	0.375213	3.424	-0.764	0.149
15	1	2	0.76978397	-3.4130001	0.73900002	-0.148
16	1	5	-0.65103	-3.642	1.387	0.90700001
17	1	2	-0.368907	-3.928	1.205	-1.448
18	1	2	-0.075631	-3.677	0.50099999	-2.562
19	1	3	0.22715899	-3.098	-0.41299999	-2.52
20	1	2	-0.246168	-4.1890001	0.95899999	-3.8710001
21	1	3	0.21767201	-3.973	0.338	-4.7270002
22	1	2	-0.206497	-4.895	2.1059999	-3.977
23	1	6	0.026083	-5.4819999	2.6040001	-5.309
24	1	6	-0.130759	-4.8429999	1.956	-6.5609999
25	1	7	0.089703999	-5.098	0.87699997	-6.625
26	1	7	0.089703999	-5.2199998	2.4389999	-7.4889998
27	1	7	0.089703999	-3.737	2.066	-6.539
28	1	2	-0.121525	-5.3249998	4.0879998	-5.427
29	1	2	-0.148408	-4.1820002	4.7880001	-5.3769999
30	1	3	0.21720099	-3.233	4.2909999	-5.224
31	1	2	0.003459	-4.2360001	6.2600002	-5.5359998
32	1	3	0.2175	-3.313	6.8239999	-5.4889998
33	1	2	-0.34365401	-5.4169998	6.882	-5.7379999
34	1	2	0.58752799	-5.461	8.3459997	-5.8990002
35	1	5	-0.50493902	-6.5539999	8.9420004	-6.0879998
36	1	2	0.074928001	-6.6690001	6.0749998	-5.8000002
37	1	3	0.211502	-7.6240001	6.553	-5.974
38	1	2	-0.178407	-6.5949998	4.7449999	-5.6389999
39	1	6	-0.026254	-7.7179999	3.7590001	-5.6830001
40	1	6	-0.13033301	-8.3260002	3.714	-7.098
41	1	7	0.093892999	-8.7749996	4.6950002	-7.3639998
42	1	7	0.093892999	-7.5469999	3.47	-7.8520002
43	1	7	0.093892999	-9.1219997	2.941	-7.151
44	1	6	-0.13033301	-8.8009996	4.1149998	-4.6479998
45	1	7	0.093892999	-9.2910004	5.079	-4.902
46	1	7	0.093892999	-8.3570004	4.2049999	-3.632
47	1	7	0.093892999	-9.5819998	3.325	-4.6220002
48	1	6	-0.180198	-7.033	2.3989999	-5.3309999
49	1	7	0.132295	-7.3280001	1.599	-6.046
50	1	7	0.132295	-7.3870001	2.036	-4.3390002
51	1	2	-0.246168	-5.191	2.865	-2.727
52	1	3	0.21767201	-5.79	3.766	-2.766
53	1	2	-0.075631	-4.7329998	2.4449999	-1.5420001
54	1	3	0.227158	-4.9619999	3.017	-0.65200001
55	1	1	-0.41015401	3.3269999	1.027	0.064000003
56	1	2	0.086103998	4.7410002	1.098	-0.132
57	1	2	-0.33663899	5.3660002	2.286	-0.16500001
58	1	3	0.22499201	4.8070002	3.2060001	-0.044
59	1	2	-0.411838	6.8280001	2.3529999	-0.368
60	1	3	0.236129	7.3150001	3.3199999	-0.39300001
61	1	2	0.26738399	7.5419998	1.226	-0.52100003
62	1	1	-0.842839	8.9569998	1.283	-0.71799999
63	1	4	0.36991701	9.5109997	0.40599999	-0.83600003
64	1	4	0.36991701	9.4610004	2.198	-0.74699998
65	1	2	-0.411838	6.8530002	-0.086000003	-0.484
66	1	3	0.236129	7.421	-0.99900001	-0.60600001
67	1	2	-0.33663899	5.5279999	-0.146	-0.30000001
68	1	3	0.22499201	5.0320001	-1.108	-0.27399999
69	1	4	0.375213	2.7539999	1.892	0.185
70	1	2	0.59302801	-4.5489998	8.927	-5.855
71	1	5	-0.51552099	-3.655	8.5970001	-5.0300002
72	1	2	-0.33220601	-4.3730001	10.082	-6.7540002
73	1	2	0.0087510003	-3.256	10.827	-6.7329998
74	1	3	0.225125	-2.4449999	10.599	-6.052
75	1	2	-0.239408	-3.109	11.978	-7.645
76	1	3	0.21767201	-2.1849999	12.542	-7.6100001
77	1	2	-0.206497	-4.0939999	12.32	-8.5059996
78	1	6	0.026083	-3.8989999	13.509	-9.4630003
79	1	6	-0.130759	-5.1950002	13.926	-10.194
80	1	7	0.089703999	-6.007	14.14	-9.4659996
81	1	7	0.089703999	-5.5320001	13.128	-10.889
82	1	7	0.089703999	-5.026	14.843	-10.8
83	1	2	-0.121525	-3.375	14.704	-8.7270002
84	1	2	-0.16780899	-3.9349999	15.315	-7.6729999
85	1	3	0.21720099	-4.8600001	14.95	-7.2470002
86	1	2	-0.05779	-3.2650001	16.503	-7.0949998
87	1	3	0.23383901	-3.72	16.987	-6.2399998
88	1	2	-0.225508	-2.112	16.969	-7.6300001
89	1	2	0.83685702	-1.433	18.156	-7.066
90	1	5	-0.472626	-1.9170001	18.761	-6.0700002
91	1	8	-0.66280502	-0.248	18.615	-7.6339998
92	1	9	0.42036301	0.228	19.427	-7.2579999
93	1	2	0.0090859998	-1.524	16.271	-8.8070002
94	1	3	0.226704	-0.60900003	16.631001	-9.2609997
95	1	2	-0.17266899	-2.1429999	15.189	-9.3039999
96	1	6	-0.026254	-1.729	14.363	-10.481
97	1	6	-0.13033301	-0.30199999	13.815	-10.29
98	1	7	0.093892999	0.442	14.64	-10.275
99	1	7	0.093892999	-0.223	13.255	-9.3319998
100	1	7	0.093892999	-0.039999999	13.127	-11.122
101	1	6	-0.13033301	-1.809	15.203	-11.769
102	1	7	0.093892999	-2.8329999	15.613	-11.906
103	1	7	0.093892999	-1.094	16.052	-11.731
104	1	7	0.093892999	-1.5599999	14.578	-12.653
105	1	6	-0.180198	-2.7750001	13.202	-10.509
106	1	7	0.132295	-3.1949999	13.061	-11.53
107	1	7	0.132295	-2.2809999	12.232	-10.273
108	1	2	-0.239408	-5.323	11.473	-8.5310001
109	1	3	0.21767201	-6.1350002	11.681	-9.2119999
110	1	2	0.0087510003	-5.4520001	10.427	-7.7049999
111	1	3	0.225125	-6.3540001	9.8290005	-7.7389998

Bonds

1	1	1	2
2	2	1	14
3	3	1	55
4	4	2	3
5	4	2	12
6	5	3	4
7	4	3	5
8	5	5	6
9	4	5	7
10	1	7	8
11	4	7	10
12	2	8	9
13	6	8	15
14	5	10	11
15	4	10	12
16	5	12	13
17	7	15	16
18	8	15	17
19	4	17	18
20	4	17	53
21	5	18	19
22	4	18	20
23	5	20	21
24	4	20	22
25	9	22	23
26	4	22	51
27	10	23	24
28	9	23	28
29	10	23	48
30	11	24	25
31	11	24	26
32	11	24	27
33	4	28	29
34	4	28	38
35	5	29	30
36	4	29	31
37	5	31	32
38	4	31	33
39	8	33	34
40	4	33	36
41	7	34	35
42	8	34	70
43	5	36	37
44	4	36	38
45	9	38	39
46	10	39	40
47	10	39	44
48	10	39	48
49	11	40	41
50	11	40	42
51	11	40	43
52	11	44	45
53	11	44	46
54	11	44	47
55	11	48	49
56	11	48	50
57	5	51	52
58	4	51	53
59	5	53	54
60	1	55	56
61	2	55	69
62	4	56	57
63	4	56	67
64	5	57	58
65	4	57	59
66	5	59	60
67	4	59	61
68	1	61	62
69	4	61	65
70	2	62	63
71	2	62	64
72	5	65	66
73	4	65	67
74	5	67	68
75	7	70	71
76	8	70	72
77	4	72	73
78	4	72	110
79	5	73	74
80	4	73	75
81	5	75	76
82	4	75	77
83	9	77	78
84	4	77	108
85	10	78	79
86	9	78	83
87	10	78	105
88	11	79	80
89	11	79	81
90	11	79	82
91	4	83	84
92	4	83	95
93	5	84	85
94	4	84	86
95	5	86	87
96	4	86	88
97	8	88	89
98	4	88	93
99	7	89	90
100	12	89	91
101	13	91	92
102	5	93	94
103	4	93	95
104	9	95	96
105	10	96	97
106	10	96	101
107	10	96	105
108	11	97	98
109	11	97	99
110	11	97	100
111	11	101	102
112	11	101	103
113	11	101	104
114	11	105	106
115	11	105	107
116	5	108	109
117	4	108	110
118	5	110	111

Angles

1	4	21	20	22
2	4	3	5	6
3	7	102	101	103
4	5	39	44	47
5	5	39	40	42
6	1	59	61	62
7	7	49	48	50
8	4	52	51	53
9	1	73	75	77
10	5	79	78	83
11	1	33	34	70
12	1	28	38	39
13	4	17	18	19
14	3	63	62	64
15	3	9	8	15
16	1	23	28	38
17	4	66	65	67
18	5	96	101	102
19	4	87	86	88
20	1	2	12	10
21	3	2	1	14
22	1	7	10	12
23	5	22	23	48
24	5	78	79	81
25	5	97	96	105
26	1	28	38	36
27	5	77	78	105
28	3	7	8	9
29	1	75	77	78
30	1	17	18	20
31	4	30	29	31
32	5	40	39	48
33	5	97	96	101
34	7	26	24	27
35	1	8	15	16
36	5	39	48	49
37	5	96	101	103
38	7	41	40	42
39	1	15	17	53
40	1	34	70	72
41	5	78	105	96
42	5	78	79	82
43	7	99	97	100
44	7	42	40	43
45	1	15	17	18
46	5	38	39	48
47	1	56	57	59
48	7	46	44	47
49	1	88	89	90
50	5	24	23	48
51	5	96	97	98
52	1	86	88	89
53	5	23	48	50
54	4	76	75	77
55	1	23	22	51
56	4	29	31	32
57	1	55	56	67
58	1	28	29	31
59	1	8	7	10
60	6	93	95	96
61	1	8	15	17
62	1	31	33	36
63	5	39	48	50
64	4	109	108	110
65	5	38	39	44
66	5	101	96	105
67	7	45	44	46
68	5	44	39	48
69	1	71	70	72
70	7	41	40	43
71	1	16	15	17
72	1	33	36	38
73	1	88	89	91
74	1	78	83	95
75	5	38	39	40
76	5	96	97	99
77	4	2	3	4
78	4	57	59	60
79	6	78	83	84
80	1	83	95	96
81	1	70	72	110
82	4	72	110	111
83	5	28	23	48
84	7	80	79	82
85	1	3	5	7
86	3	1	55	69
87	2	7	8	15
88	7	102	101	104
89	7	45	44	47
90	1	62	61	65
91	4	85	84	86
92	5	39	40	43
93	1	1	2	3
94	4	18	20	21
95	1	78	77	108
96	4	77	108	109
97	5	77	78	83
98	4	83	84	85
99	1	86	88	93
100	1	2	3	5
101	4	58	57	59
102	4	10	12	13
103	4	37	36	38
104	1	89	88	93
105	7	25	24	26
106	3	61	62	63
107	5	77	78	79
108	1	20	22	23
109	4	56	67	68
110	4	61	65	66
111	4	94	93	95
112	5	23	24	25
113	1	5	7	8
114	1	73	72	110
115	4	84	86	87
116	4	6	5	7
117	1	18	20	22
118	5	23	48	39
119	4	60	59	61
120	1	77	108	110
121	1	83	95	93
122	1	72	110	108
123	8	89	91	92
124	5	83	78	105
125	1	31	33	34
126	5	96	101	104
127	5	39	44	45
128	5	78	105	106
129	4	32	31	33
130	4	72	73	74
131	6	36	38	39
132	3	56	55	69
133	1	29	31	33
134	1	55	56	57
135	1	56	67	65
136	5	39	44	46
137	3	14	1	55
138	1	1	2	12
139	1	35	34	70
140	7	103	101	104
141	1	18	17	53
142	1	72	73	75
143	4	4	3	5
144	1	20	22	51
145	4	17	53	54
146	7	81	79	82
147	5	96	105	106
148	1	29	28	38
149	5	96	97	100
150	1	57	59	61
151	4	7	10	11
152	4	108	110	111
153	5	95	96	97
154	4	51	53	54
155	5	78	79	80
156	4	11	10	12
157	1	70	72	73
158	5	79	78	105
159	7	106	105	107
160	2	2	1	55
161	1	84	83	95
162	5	22	23	28
163	1	83	84	86
164	9	90	89	91
165	1	33	34	35
166	4	88	93	94
167	5	96	105	107
168	1	3	2	12
169	5	22	23	24
170	6	23	28	29
171	4	22	51	52
172	1	34	70	71
173	4	65	67	68
174	7	98	97	99
175	7	25	24	27
176	3	61	62	64
177	4	74	73	75
178	1	17	53	51
179	4	56	57	58
180	5	23	24	26
181	1	5	7	10
182	1	61	65	67
183	4	2	12	13
184	5	95	96	105
185	1	59	61	65
186	5	23	48	49
187	1	84	86	88
188	4	28	29	30
189	1	88	93	95
190	1	57	56	67
191	5	24	23	28
192	5	78	105	107
193	2	1	55	56
194	5	95	96	101
195	5	39	40	41
196	1	22	51	53
197	4	19	18	20
198	4	73	75	76
199	7	98	97	100
200	5	40	39	44
201	5	23	24	27
202	4	33	36	37
203	1	75	77	108
204	1	34	33	36
205	7	80	79	81

Dihedrals

1	1	85	84	86	88
2	1	6	5	7	8
3	1	17	53	51	22
4	16	80	79	78	105
5	1	4	3	5	6
6	12	38	39	44	46
7	1	5	7	10	12
8	12	38	39	40	41
9	1	4	3	2	12
10	1	70	72	110	111
11	1	84	86	88	89
12	1	18	20	22	51
13	11	95	83	78	105
14	12	83	78	105	96
15	1	3	2	12	10
16	12	28	23	48	49
17	1	37	36	38	39
18	16	101	96	105	107
19	1	83	84	86	87
20	16	98	97	96	105
21	1	73	75	77	108
22	16	40	39	44	45
23	16	81	79	78	105
24	1	17	18	20	21
25	16	97	96	101	102
26	1	28	38	36	37
27	1	22	51	53	54
28	1	75	77	108	110
29	1	29	31	33	36
30	16	102	101	96	105
31	12	95	96	105	107
32	12	95	96	101	102
33	16	40	39	48	50
34	1	19	18	20	21
35	8	35	34	70	71
36	11	48	23	22	51
37	1	94	93	95	96
38	11	83	95	96	101
39	13	78	105	96	97
39	14	78	105	96	97
39	15	78	105	96	97
40	16	41	40	39	48
41	1	66	65	67	68
42	11	75	77	78	79
43	11	20	22	23	24
44	1	32	31	33	34
45	1	1	2	3	4
46	1	30	29	31	32
47	1	28	29	31	33
48	13	23	48	39	40
48	14	23	48	39	40
48	15	23	48	39	40
49	1	15	17	18	19
50	3	2	1	55	56
51	12	77	78	105	107
52	1	78	83	84	86
53	1	85	84	86	87
54	1	74	73	72	110
55	1	5	3	2	12
56	1	11	10	12	13
57	12	38	39	48	50
58	16	99	97	96	105
59	12	38	39	44	45
60	11	83	95	96	105
61	11	29	28	23	48
62	2	10	7	8	15
63	1	62	61	65	67
64	11	20	22	23	28
65	1	30	29	28	38
66	1	23	22	51	53
67	12	83	78	105	106
68	1	89	88	93	95
69	1	18	17	53	51
70	3	2	1	55	69
71	1	55	56	67	68
72	1	56	67	65	61
73	16	101	96	105	106
74	1	2	3	5	7
75	11	93	95	96	97
76	16	44	39	48	50
77	1	34	33	36	37
78	1	76	75	77	108
79	1	3	5	7	8
80	16	97	96	105	106
81	1	75	77	108	109
82	1	2	12	10	7
83	1	61	65	67	68
84	11	28	38	39	44
85	12	22	23	24	26
86	16	104	101	96	105
87	1	58	57	56	67
88	12	95	96	105	106
89	11	93	95	96	101
90	16	79	78	105	107
91	8	16	15	17	18
92	16	40	39	48	49
93	12	80	79	78	83
94	16	103	101	96	105
95	2	12	2	1	14
96	12	95	96	97	98
97	2	5	7	8	9
98	1	20	22	51	53
99	1	28	29	31	32
100	8	71	70	72	73
101	1	55	56	67	65
102	16	45	44	39	48
103	12	77	78	105	106
104	11	77	78	83	95
105	1	78	83	84	85
106	16	98	97	96	101
107	1	76	75	77	78
108	1	72	110	108	77
109	1	74	73	75	76
110	12	38	39	48	49
111	1	28	38	36	33
112	1	62	61	65	66
113	3	14	1	55	56
114	1	78	77	108	110
115	1	1	2	12	13
116	1	72	73	75	77
117	6	7	8	15	17
117	7	7	8	15	17
118	8	86	88	89	91
119	1	23	22	51	52
120	2	5	7	8	15
121	1	70	72	73	75
122	2	57	56	55	69
123	1	2	3	5	6
124	8	90	89	88	93
125	11	28	23	22	51
126	1	83	95	93	94
127	2	3	2	1	55
128	12	38	39	40	43
129	3	14	1	55	69
130	2	67	56	55	69
131	16	42	40	39	48
132	11	83	95	96	97
133	16	41	40	39	44
134	1	109	108	110	111
135	1	20	18	17	53
136	1	18	17	53	54
137	1	23	28	29	31
138	1	57	59	61	65
139	11	83	78	77	108
140	12	77	78	79	80
141	12	22	23	24	25
142	16	79	78	105	106
143	11	79	78	83	95
144	12	22	23	48	50
145	1	59	61	65	67
146	1	58	57	59	60
147	16	97	96	101	104
148	16	99	97	96	101
149	2	1	55	56	67
150	1	57	56	67	68
151	12	78	105	96	95
152	11	84	83	78	105
153	8	71	70	72	110
154	1	7	10	12	13
155	1	56	67	65	66
156	16	24	23	48	50
157	1	21	20	22	51
158	6	9	8	15	17
158	7	9	8	15	17
159	8	8	15	17	18
160	12	77	78	105	96
161	11	105	78	77	108
162	1	18	20	22	23
163	8	31	33	34	35
164	12	27	24	23	28
165	11	36	38	39	48
166	1	5	7	10	11
167	2	59	61	62	64
168	1	31	33	36	38
169	1	78	77	108	109
170	1	87	86	88	89
171	4	7	8	15	16
171	5	7	8	15	16
172	1	32	31	33	36
173	16	100	97	96	105
174	1	60	59	61	65
175	1	57	59	61	62
176	1	70	72	73	74
177	17	88	89	91	92
178	11	28	38	39	40
179	1	88	93	95	96
180	8	33	34	70	72
181	1	78	83	95	93
182	12	38	39	44	47
183	1	57	56	67	65
184	1	23	28	29	30
185	16	27	24	23	48
186	12	28	23	48	50
187	11	77	78	83	84
188	11	22	23	28	29
189	1	59	57	56	67
190	1	83	84	86	88
191	12	22	23	48	49
192	13	79	78	105	96
192	14	79	78	105	96
192	15	79	78	105	96
193	1	77	108	110	111
194	1	6	5	7	10
195	16	97	96	101	103
196	8	36	33	34	70
197	2	1	55	56	57
198	1	29	28	38	36
199	1	19	18	17	53
200	11	75	77	78	105
201	11	24	23	28	29
202	1	60	59	61	62
203	1	87	86	88	93
204	16	24	23	48	49
205	1	86	88	93	95
206	1	33	36	38	39
207	1	55	56	57	59
208	12	81	79	78	83
209	1	19	18	20	22
210	8	35	34	70	72
211	12	95	96	97	100
212	1	31	33	36	37
213	16	43	40	39	44
214	16	42	40	39	44
215	16	82	79	78	105
216	1	15	17	53	51
217	1	30	29	31	33
218	1	89	88	93	94
219	11	79	78	83	84
220	16	44	39	48	49
221	12	23	48	39	38
222	1	56	57	59	61
223	11	79	78	77	108
224	8	33	34	70	71
225	11	36	38	39	40
226	16	43	40	39	48
227	8	91	89	88	93
228	1	1	2	12	10
229	12	83	78	105	107
230	1	29	31	33	34
231	1	73	72	110	108
232	1	75	73	72	110
233	12	22	23	48	39
234	1	34	33	36	38
235	16	40	39	44	47
236	1	78	83	95	96
237	16	97	96	105	107
238	11	36	38	39	44
239	18	90	89	91	92
239	19	90	89	91	92
240	8	16	15	17	53
241	16	47	44	39	48
242	16	100	97	96	101
243	1	20	22	51	52
244	1	84	83	95	93
245	1	8	7	10	12
246	12	77	78	79	82
247	12	22	23	24	27
248	1	86	88	93	94
249	2	64	62	61	65
250	2	3	2	1	14
251	13	24	23	48	39
251	14	24	23	48	39
251	15	24	23	48	39
252	8	34	70	72	110
253	2	63	62	61	65
254	12	95	96	101	104
255	2	9	8	7	10
256	1	55	56	57	58
257	12	95	96	97	99
258	1	3	5	7	10
259	1	70	72	110	108
260	1	72	73	75	76
261	8	86	88	89	90
262	1	84	86	88	93
263	1	31	29	28	38
264	16	46	44	39	48
265	1	52	51	53	54
266	1	73	75	77	78
267	1	56	57	59	60
268	1	74	73	75	77
269	1	23	28	38	39
270	1	4	3	5	7
271	12	38	39	40	42
272	13	78	105	96	101
272	14	78	105	96	101
272	15	78	105	96	101
273	11	75	77	78	83
274	1	23	28	38	36
275	1	15	17	53	54
276	13	23	48	39	44
276	14	23	48	39	44
276	15	23	48	39	44
277	11	22	23	28	38
278	2	12	2	1	55
279	12	28	23	48	39
280	12	26	24	23	28
281	1	59	61	65	66
282	1	29	28	38	39
283	1	85	84	83	95
284	1	83	95	93	88
285	16	40	39	44	46
286	1	72	110	108	109
287	12	25	24	23	28
288	1	17	18	20	22
289	1	21	20	22	23
290	12	82	79	78	83
291	1	17	53	51	52
292	11	24	23	28	38
293	1	73	72	110	111
294	1	8	7	10	11
295	12	77	78	79	81
296	1	2	12	10	11
297	8	34	70	72	73
298	9	9	8	15	16
298	10	9	8	15	16
299	11	38	28	23	48
300	12	95	96	101	103
301	11	20	22	23	48
302	1	58	57	59	61
303	1	86	84	83	95
304	2	59	61	62	63
305	11	24	23	22	51
306	16	26	24	23	48
307	8	8	15	17	53
308	8	35	34	33	36
309	8	31	33	34	70
310	1	1	2	3	5
311	1	3	2	12	13
312	1	84	83	95	96
313	16	25	24	23	48
314	11	28	38	39	48
315	1	15	17	18	20
316	11	93	95	96	105

Impropers

4	1	110	111	72	108
24	1	59	60	61	57
25	1	7	5	8	10
30	2	62	61	63	64
31	1	72	73	110	70
36	1	84	86	83	85
39	1	29	31	28	30
46	1	22	23	51	20
52	1	36	38	33	37
53	1	70	71	72	34
67	1	5	7	3	6
70	2	62	64	61	63
76	1	56	55	57	67
80	1	10	11	12	7
81	1	70	72	34	71
83	1	33	34	36	31
85	1	17	15	18	53
88	2	55	1	56	69
92	1	12	10	13	2
94	2	8	15	7	9
97	1	83	95	78	84
98	1	86	84	87	88
101	1	72	110	70	73
105	1	15	16	17	8
107	1	22	20	23	51
109	1	84	83	85	86
111	2	62	63	64	61
121	1	3	2	4	5
127	1	65	66	67	61
135	1	34	33	35	70
136	1	33	36	31	34
145	1	59	57	60	61
148	1	3	4	5	2
149	1	51	22	52	53
151	1	51	53	22	52
152	1	86	87	88	84
155	1	34	70	33	35
161	1	20	18	21	22
162	1	57	59	56	58
165	1	93	94	95	88
167	1	110	72	108	111
174	1	108	110	77	109
175	1	53	54	17	51
176	1	53	17	51	54
177	1	83	84	95	78
181	1	12	2	10	13
188	1	15	8	16	17
190	1	33	31	34	36
192	1	5	3	6	7
193	1	61	59	62	65
194	2	8	7	9	15
196	1	2	3	12	1
197	1	20	21	22	18
200	1	28	23	29	38
205	1	65	61	66	67
209	3	89	88	90	91
211	2	55	69	1	56
214	2	1	14	55	2
218	1	18	19	20	17
221	1	5	6	7	3
224	1	88	93	86	89
225	1	56	57	67	55
233	1	29	30	31	28
236	1	38	36	39	28
238	1	34	35	70	33
239	1	29	28	30	31
241	1	84	85	86	83
242	1	73	75	72	74
251	1	53	51	54	17
252	1	108	109	110	77
259	1	93	95	88	94
267	1	38	39	28	36
288	1	77	75	78	108
298	1	38	28	36	39
302	1	95	96	83	93
303	1	83	78	84	95
311	1	51	52	53	22
314	1	12	13	2	10
315	1	28	29	38	23
317	1	31	32	33	29
319	2	1	2	14	55
320	1	10	7	11	12
321	1	95	93	96	83
329	1	73	74	75	72
330	1	61	65	59	62
331	1	31	33	29	32
332	1	73	72	74	75
334	2	1	55	2	14
340	1	2	12	1	3
345	1	15	17	8	16
347	1	65	67	61	66
355	1	110	108	111	72
365	3	89	90	91	88
369	1	36	33	37	38
371	2	55	56	69	1
378	1	70	34	71	72
382	2	8	9	15	7
384	1	108	77	109	110
387	1	57	58	59	56
390	1	3	5	2	4
392	1	75	73	76	77
393	1	93	88	94	95
399	1	28	38	23	29
405	1	61	62	65	59
406	1	88	86	89	93
408	1	10	12	7	11
410	1	67	65	68	56
423	1	75	76	77	73
424	1	18	20	17	19
428	1	95	83	93	96
432	1	22	51	20	23
436	1	7	10	5	8
440	1	20	22	18	21
451	3	89	91	88	90
452	1	88	89	93	86
459	1	59	61	57	60
460	1	31	29	32	33
461	1	72	70	73	110
463	1	67	56	65	68
467	1	7	8	10	5
475	1	75	77	73	76
480	1	36	37	38	33
481	1	17	18	53	15
488	1	56	67	55	57
489	1	77	78	108	75
494	1	86	88	84	87
501	1	57	56	58	59
509	1	18	17	19	20
511	1	17	53	15	18
515	1	2	1	3	12
533	1	67	68	56	65
544	1	77	108	75	78
