Title

225 atoms
244 bonds
401 angles
623 dihedrals
360 impropers

10 atom types
14 bond types
9 angle types
19 dihedral types
3 improper types
-11.92599964 88.07400036 xlo xhi
-7.484000206 92.51599979 ylo yhi
-4.276000023 95.72399998 zlo zhi
0.0 0.0 0.0 xy xz yz

Masses

1	14.00672
2	12.01078
3	1.007947
4	15.99943
5	12.01078
6	1.007947
7	18.998403
8	15.99943
9	15.99943
10	1.007947


Pair Coeffs

1	0.16769152	3.206876
2	0.086879315	3.4806469
3	0.015611343	2.5725815
4	0.16846514	3.0251065
5	0.10884061	3.3795318
6	0.014090815	1.1034277
7	0.061	3.1181455
8	0.2102061	3.0398122
9	0.20947353	2.99716
10	1.2326e-05	0.53453923

Bond Coeffs

1 harmonic	390.03554688505	1.390160554689
2 harmonic	505.144496193	1.019481865027
3 harmonic	422.7150220147	1.421786517481
4 harmonic	360.7852444772	1.387193227181
5 harmonic	397.2545789619	1.085358495916
6 harmonic	279.1350963404	1.454628925034
7 harmonic	425.69104206635	1.362945806494
8 harmonic	289.73813263395	1.498646816465
9 harmonic	352.0565580496	1.450098586273
10 harmonic	492.76746816345	1.381897776683
11 harmonic	340.45121009905	1.358690858053
12 harmonic	582.698766451	1.225198386222
13 harmonic	385.7604595587	1.369745182308
14 harmonic	543.5267831885	0.9716763312559


Angle Coeffs

1 harmonic	57.8982893754	126.8062420451
2 harmonic	55.42182150775	117.3465570514
3 harmonic	63.44422595415	115.5071327674
4 harmonic	34.066775159195	129.1835929926
5 harmonic	65.09061609600001	110.3538806181
6 harmonic	53.20531626545	116.5475862634
7 harmonic	14.32262199324	138.3184368373
8 harmonic	39.628116874445	129.8027304608
9 harmonic	201.41175231035	127.4691416191


Dihedral Coeffs

1 fourier 1	3.661930099076	2	180
2 fourier 1	1.193093382682	2	180
3 fourier 1	0.02021088501612	1	0
4 fourier 1	1.163235555439	2	180
5 fourier 1	1.532232714475	2	180
6 fourier 1	0.02664938770063	3	0
7 fourier 1	-0.6891728821899999	2	180
8 fourier 1	0.2727846432367	1	0
9 fourier 1	1.57666786751	2	180
10 fourier 1	3.101948770557	2	180
11 fourier 1	-0.4252153282372	1	0
12 fourier 1	1.809047390003	2	180
13 fourier 1	-0.04816277792592	1	0
14 fourier 1	0.9974165607242	2	180
15 fourier 1	2.348375642009	2	180
16 fourier 1	1.256156174911	1	0
17 fourier 1	2.687457892086	2	180
18 fourier 1	2.772607909663	2	180
19 fourier 1	0.09692684957115	1	0


Improper Coeffs

1 0.3666666666666667	-1	2
2 0.3333333333333333	-1	2
3 3.5	-1	2


Atoms

1	1	1	-0.41150099	-11.091	5.553	1.375
2	1	2	0.12759399	-9.9469995	4.915	0.80299997
3	1	2	-0.40580201	-9.927	3.585	0.62400001
4	1	3	0.22244	-10.778	2.98	0.91399997
5	1	2	-0.112876	-8.7320004	2.9260001	0.052999999
6	1	3	0.20459101	-8.7370005	1.847	-0.037
7	1	2	-0.12723	-7.6529999	3.6470001	-0.301
8	1	2	-0.133488	-6.4310002	2.9779999	-0.81800002
9	1	2	-0.127867	-5.2090001	3.3800001	-0.41299999
10	1	3	0.207873	-5.0939999	4.1919999	0.28999999
11	1	2	-0.29486999	-4.0009999	2.6889999	-0.89200002
12	1	3	0.225188	-3.03	3.007	-0.53500003
13	1	2	0.33034101	-4.1040001	1.653	-1.735
14	1	4	-0.27079701	-2.9519999	0.97500002	-2.131
15	1	2	0.26630601	-2.3	0.021	-1.335
16	1	2	-0.291778	-2.8659999	-0.50999999	-0.236
17	1	3	0.23205601	-3.8570001	-0.221	0.082999997
18	1	2	-0.15517899	-2.148	-1.524	0.55900002
19	1	3	0.219312	-2.6600001	-1.949	1.409
20	1	2	-0.144949	-0.88999999	-1.8940001	0.236
21	1	5	0.190428	-0.131	-2.9590001	1.048
22	1	2	-0.144949	1.387	-2.723	1.0650001
23	1	2	-0.15517899	2.2590001	-3.743	1.211
24	1	3	0.219312	1.918	-4.7639999	1.295
25	1	2	-0.291778	3.714	-3.494	1.274
26	1	3	0.23205601	4.3990002	-4.3330002	1.3099999
27	1	2	0.26630601	4.1859999	-2.2420001	1.2539999
28	1	4	-0.27079701	5.5700002	-2.033	1.276
29	1	2	0.33034101	6.1630001	-0.83499998	0.86199999
30	1	2	-0.29486999	6.8610001	-0.119	1.753
31	1	3	0.225188	6.9809999	-0.48100001	2.7650001
32	1	2	-0.127867	7.4050002	1.2029999	1.3940001
33	1	3	0.207873	7.9590001	1.757	2.1440001
34	1	2	-0.133488	7.2179999	1.7029999	0.162
35	1	2	-0.12723	7.7150002	3.0539999	-0.191
36	1	2	-0.126936	8.2810001	3.286	-1.393
37	1	3	0.20459101	8.415	2.484	-2.1099999
38	1	2	-0.373799	8.7510004	4.6399999	-1.751
39	1	3	0.21886601	9.1990004	4.8010001	-2.723
40	1	2	0.199818	8.6000004	5.658	-0.889
41	1	1	-0.53173703	9.0229998	6.9759998	-1.247
42	1	6	0.31996101	9.4639997	7.1719999	-2.1719999
43	1	2	-0.373799	7.9790001	5.4130001	0.43200001
44	1	3	0.21886601	7.8590002	6.2280002	1.132
45	1	2	-0.126936	7.5689998	4.1830001	0.76700002
46	1	3	0.20459101	7.1059999	4.0229998	1.732
47	1	2	-0.055342	6.4879999	0.889	-0.847
48	1	3	0.206885	6.3499999	1.289	-1.8430001
49	1	2	-0.32108599	6.0219998	-0.33899999	-0.54500002
50	1	5	0.76713902	5.3410001	-1.169	-1.614
51	1	7	-0.206553	5.54	-2.5179999	-1.383
52	1	7	-0.206553	5.8530002	-0.87800002	-2.868
53	1	7	-0.206553	3.9849999	-0.89999998	-1.615
54	1	2	-0.291778	3.233	-1.1059999	1.2460001
55	1	3	0.23205601	3.596	-0.088	1.323
56	1	2	-0.15517899	1.92	-1.332	1.166
57	1	3	0.219312	1.247	-0.486	1.1849999
58	1	2	0.086792	-0.58399999	-3.0179999	2.5009999
59	1	2	-0.050198	-0.53500003	-2.0669999	3.444
60	1	3	0.217104	-0.13500001	-1.084	3.2320001
61	1	2	-0.26609299	-1.061	-2.3870001	4.7979999
62	1	3	0.223115	-1.039	-1.633	5.573
63	1	2	-0.25065801	-1.58	-3.6040001	5.0580001
64	1	3	0.214561	-1.9630001	-3.8329999	6.0419998
65	1	2	0.0088280002	-1.628	-4.6399999	3.9979999
66	1	3	0.22054499	-2.046	-5.6209998	4.1900001
67	1	2	-0.236274	-1.1390001	-4.322	2.802
68	1	2	0.68630099	-1.064	-5.0910001	1.594
69	1	8	-0.551952	-1.4630001	-6.2779999	1.461
70	1	1	-0.44887099	-0.48699999	-4.3140001	0.54400003
71	1	2	0.205835	-0.207	-4.8569999	-0.76200002
72	1	2	-0.339908	-0.81099999	-4.3629999	-1.862
73	1	3	0.207131	-1.5369999	-3.5669999	-1.788
74	1	2	-0.164152	-0.53399998	-4.948	-3.191
75	1	3	0.232733	-0.99400002	-4.5180001	-4.0689998
76	1	2	-0.2617	0.271	-6.0110002	-3.303
77	1	3	0.227485	0.46799999	-6.4419999	-4.276
78	1	2	-0.164152	0.88800001	-6.6030002	-2.0940001
79	1	3	0.232732	1.513	-7.4840002	-2.178
80	1	2	-0.339908	0.65600002	-6.0609999	-0.88999999
81	1	3	0.207131	1.0779999	-6.52	-0.0089999996
82	1	2	-0.15517899	-0.28799999	-1.325	-1.01
83	1	3	0.219312	0.68199998	-1.664	-1.354
84	1	2	-0.291778	-0.95300001	-0.42300001	-1.739
85	1	3	0.23205601	-0.50800002	-0.026000001	-2.6429999
86	1	2	-0.32108599	-5.4390001	1.2180001	-2.2320001
87	1	5	0.76713902	-5.5479999	0.022	-3.151
88	1	7	-0.206553	-4.552	0.061000001	-4.1110001
89	1	7	-0.206553	-5.4029999	-1.135	-2.408
90	1	7	-0.206553	-6.7680001	-0.016000001	-3.802
91	1	2	-0.055342	-6.54	1.837	-1.767
92	1	3	0.206885	-7.5229998	1.512	-2.0780001
93	1	2	-0.112876	-7.6890001	5.125	-0.118
94	1	3	0.20459101	-6.8390002	5.7340002	-0.40900001
95	1	2	-0.40580201	-8.7690001	5.7199998	0.40400001
96	1	3	0.22244	-8.7770004	6.7969999	0.542
97	1	6	0.37337801	-11.926	5.0009999	1.66
98	1	2	0.76804203	8.8610001	7.7870002	-0.579
99	1	8	-0.65657699	9.8479996	8.4799995	-0.212
100	1	2	-0.353719	7.4980001	8.0799999	-0.1
101	1	2	-0.074004002	7.2529998	9.0979996	0.74599999
102	1	3	0.22345801	8.0539999	9.7340002	1.103
103	1	2	-0.242852	5.8769999	9.3660002	1.2079999
104	1	3	0.21390501	5.6900001	10.187	1.8890001
105	1	2	-0.021723	4.8639998	8.6000004	0.78799999
106	1	3	0.22300901	3.8599999	8.8100004	1.135
107	1	2	-0.292687	5.1160002	7.474	-0.146
108	1	2	0.58808202	4.006	6.6240001	-0.61400002
109	1	8	-0.52400202	2.825	6.8369999	-0.23199999
110	1	2	0.056995999	6.3709998	7.2329998	-0.56400001
111	1	3	0.240584	6.572	6.414	-1.245
112	1	1	-0.41150099	-11.11	6.5840001	1.508
113	1	2	0.12759399	-10.168	7.223	2.3740001
114	1	2	-0.40580201	-10.199	8.552	2.552
115	1	3	0.22244	-10.936	9.1569996	2.0380001
116	1	2	-0.112876	-9.2069998	9.2119999	3.4300001
117	1	3	0.20459101	-9.2370005	10.29	3.516
118	1	2	-0.12723	-8.2679996	8.4899998	4.0689998
119	1	2	-0.133488	-7.2360001	9.1590004	4.9029999
120	1	2	-0.127867	-5.9499998	8.7580004	4.8509998
121	1	3	0.207873	-5.6459999	7.9450002	4.2069998
122	1	2	-0.29486999	-4.921	9.448	5.645
123	1	3	0.225188	-3.8900001	9.1309996	5.5700002
124	1	2	0.33034101	-5.2529998	10.484	6.4260001
125	1	4	-0.27079701	-4.2550001	11.163	7.1259999
126	1	2	0.26630601	-3.408	12.117	6.54
127	1	2	-0.291778	-3.6489999	12.648	5.3270001
128	1	3	0.23205601	-4.5139999	12.358	4.7470002
129	1	2	-0.15517899	-2.7390001	13.661	4.7620001
130	1	3	0.219312	-2.997	14.086	3.803
131	1	2	-0.144949	-1.619	14.031	5.4200001
132	1	5	0.190428	-0.66600001	15.096	4.849
133	1	2	-0.144949	0.79799998	14.86	5.2509999
134	1	2	-0.15517899	1.676	15.881	5.3520002
135	1	3	0.219312	1.372	16.900999	5.177
136	1	2	-0.291778	3.092	15.631	5.6929998
137	1	3	0.23205601	3.76	16.471001	5.848
138	1	2	0.26630601	3.54	14.38	5.8429999
139	1	4	-0.27079701	4.8769999	14.171	6.2030001
140	1	2	0.33034101	5.3319998	12.972	6.7649999
141	1	2	-0.29486999	6.2490001	12.257	6.1009998
142	1	3	0.225188	6.6430001	12.618	5.1609998
143	1	2	-0.127867	6.6719999	10.934	6.5960002
144	1	3	0.207873	7.4120002	10.381	6.0289998
145	1	2	-0.133488	6.1529999	10.435	7.7290001
146	1	2	-0.12723	6.533	9.0830002	8.2060003
147	1	2	-0.076177001	6.7449999	8.8509998	9.5170002
148	1	3	0.20459101	6.6760001	9.6529999	10.243
149	1	2	-0.44997999	7.098	7.4970002	9.9910002
150	1	3	0.231003	7.2610002	7.336	11.048
151	1	2	0.31967899	7.191	6.4790001	9.1210003
152	1	1	-0.844248	7.4980001	5.1609998	9.5810003
153	1	6	0.36723101	7.527	4.3660002	8.908
154	1	6	0.36723101	7.6669998	4.9650002	10.592
155	1	2	-0.44997999	6.9590001	6.724	7.6799998
156	1	3	0.231003	7.0359998	5.9089999	6.974
157	1	2	-0.076177001	6.6570001	7.9549999	7.2449999
158	1	3	0.20459101	6.4790001	8.1140003	6.1890001
159	1	2	-0.055342	5.1719999	11.249	8.4969997
160	1	3	0.206885	4.7649999	10.849	9.4169998
161	1	2	-0.32108599	4.8080001	12.476	8.0780001
162	1	5	0.76713902	3.859	13.307	8.9180002
163	1	7	-0.206553	4.1139998	14.656	8.75
164	1	7	-0.206553	4.0040002	13.015	10.264
165	1	7	-0.206553	2.5539999	13.037	8.5439997
166	1	2	-0.291778	2.622	13.244	5.5869999
167	1	3	0.23205601	2.9920001	12.225	5.6129999
168	1	2	-0.15517899	1.3380001	13.469	5.302
169	1	3	0.219312	0.69599998	12.624	5.0970001
170	1	2	0.086792	-0.70099998	15.155	3.3269999
171	1	2	-0.050198	-0.39300001	14.204	2.434
172	1	3	0.217104	-0.067000002	13.221	2.7490001
173	1	2	-0.26609299	-0.52499998	14.525	0.98799998
174	1	3	0.223115	-0.28999999	13.77	0.249
175	1	2	-0.25065801	-0.95200002	15.741	0.59399998
176	1	3	0.214561	-1.048	15.971	-0.45699999
177	1	2	0.0088280002	-1.291	16.778	1.6
178	1	3	0.22054499	-1.6390001	17.757999	1.3
179	1	2	-0.236274	-1.15	16.459999	2.8840001
180	1	2	0.68630099	-1.4119999	17.229	4.066
181	1	8	-0.551952	-1.832	18.415001	4.0840001
182	1	1	-0.44887099	-1.147	16.451	5.2350001
183	1	2	0.205835	-1.239	16.995001	6.5679998
184	1	2	-0.339908	-2.1229999	16.500999	7.4580002
185	1	3	0.207131	-2.8010001	15.704	7.1859999
186	1	2	-0.164152	-2.223	17.084999	8.8109999
187	1	3	0.232733	-2.908	16.656	9.5290003
188	1	2	-0.2617	-1.48	18.148001	9.1420002
189	1	3	0.227485	-1.5599999	18.58	10.131
190	1	2	-0.164152	-0.55400002	18.74	8.1499996
191	1	3	0.232732	0.024	19.622	8.4040003
192	1	2	-0.339908	-0.44400001	18.198	6.9289999
193	1	3	0.207131	0.204	18.657	6.198
194	1	2	-0.15517899	-1.385	13.462	6.783
195	1	3	0.219312	-0.54799998	13.801	7.382
196	1	2	-0.291778	-2.2249999	12.561	7.3010001
197	1	3	0.23205601	-2.0469999	12.164	8.2919998
198	1	2	-0.32108599	-6.6729999	10.919	6.5359998
199	1	5	0.76713902	-7.0310001	12.116	7.3889999
200	1	7	-0.206553	-6.3400002	12.076	8.5869999
201	1	7	-0.206553	-6.6869998	13.272	6.7150002
202	1	7	-0.206553	-8.3839998	12.153	7.678
203	1	2	-0.055342	-7.6030002	10.301	5.7849998
204	1	3	0.206885	-8.6330004	10.625	5.8119998
205	1	2	-0.112876	-8.2519999	7.013	3.8829999
206	1	3	0.20459101	-7.5159998	6.4039998	4.3969998
207	1	2	-0.40580201	-9.1459999	6.4169998	3.0829999
208	1	3	0.22244	-9.1160002	5.3410001	2.948
209	1	6	0.37337801	-11.834	7.1360002	1.0039999
210	1	2	0.58808202	4.197	5.8049998	-1.295
211	1	8	-0.52400202	4.698	6.0539999	-2.4230001
212	1	2	-0.28817701	3.8670001	4.4250002	-0.889
213	1	2	-0.021723	4.0890002	3.381	-1.707
214	1	3	0.22300901	4.5180001	3.5220001	-2.6919999
215	1	2	-0.244003	3.7479999	2.0120001	-1.273
216	1	3	0.21390501	3.931	1.178	-1.939
217	1	2	-0.059765	3.217	1.801	-0.064000003
218	1	3	0.233913	2.974	0.79000002	0.237
219	1	2	-0.21803799	2.964	2.9400001	0.85399997
220	1	2	0.83904999	2.3759999	2.691	2.1889999
221	1	8	-0.48607901	2.154	3.6459999	2.9820001
222	1	9	-0.66484702	2.0610001	1.392	2.5799999
223	1	10	0.41837299	1.658	1.206	3.4909999
224	1	2	0.073748998	3.277	4.1880002	0.45100001
225	1	3	0.25065801	3.1029999	5.0359998	1.102

Bonds

1	1	1	2
2	2	1	97
3	3	1	112
4	4	2	3
5	4	2	95
6	5	3	4
7	4	3	5
8	5	5	6
9	4	5	7
10	6	7	8
11	4	7	93
12	4	8	9
13	4	8	91
14	5	9	10
15	4	9	11
16	5	11	12
17	4	11	13
18	7	13	14
19	4	13	86
20	7	14	15
21	4	15	16
22	4	15	84
23	5	16	17
24	4	16	18
25	5	18	19
26	4	18	20
27	8	20	21
28	4	20	82
29	8	21	22
30	8	21	58
31	9	21	70
32	4	22	23
33	4	22	56
34	5	23	24
35	4	23	25
36	5	25	26
37	4	25	27
38	7	27	28
39	4	27	54
40	7	28	29
41	4	29	30
42	4	29	49
43	5	30	31
44	4	30	32
45	5	32	33
46	4	32	34
47	6	34	35
48	4	34	47
49	4	35	36
50	4	35	45
51	5	36	37
52	4	36	38
53	5	38	39
54	4	38	40
55	1	40	41
56	4	40	43
57	2	41	42
58	10	41	98
59	5	43	44
60	4	43	45
61	5	45	46
62	5	47	48
63	4	47	49
64	8	49	50
65	11	50	51
66	11	50	52
67	11	50	53
68	5	54	55
69	4	54	56
70	5	56	57
71	4	58	59
72	4	58	67
73	5	59	60
74	4	59	61
75	5	61	62
76	4	61	63
77	5	63	64
78	4	63	65
79	5	65	66
80	4	65	67
81	6	67	68
82	12	68	69
83	10	68	70
84	1	70	71
85	4	71	72
86	4	71	80
87	5	72	73
88	4	72	74
89	5	74	75
90	4	74	76
91	5	76	77
92	4	76	78
93	5	78	79
94	4	78	80
95	5	80	81
96	5	82	83
97	4	82	84
98	5	84	85
99	8	86	87
100	4	86	91
101	11	87	88
102	11	87	89
103	11	87	90
104	5	91	92
105	5	93	94
106	4	93	95
107	5	95	96
108	12	98	99
109	6	98	100
110	4	100	101
111	4	100	110
112	5	101	102
113	4	101	103
114	5	103	104
115	4	103	105
116	5	105	106
117	4	105	107
118	6	107	108
119	4	107	110
120	12	108	109
121	6	108	210
122	5	110	111
123	1	112	113
124	2	112	209
125	4	113	114
126	4	113	207
127	5	114	115
128	4	114	116
129	5	116	117
130	4	116	118
131	6	118	119
132	4	118	205
133	4	119	120
134	4	119	203
135	5	120	121
136	4	120	122
137	5	122	123
138	4	122	124
139	7	124	125
140	4	124	198
141	7	125	126
142	4	126	127
143	4	126	196
144	5	127	128
145	4	127	129
146	5	129	130
147	4	129	131
148	8	131	132
149	4	131	194
150	8	132	133
151	8	132	170
152	9	132	182
153	4	133	134
154	4	133	168
155	5	134	135
156	4	134	136
157	5	136	137
158	4	136	138
159	7	138	139
160	4	138	166
161	7	139	140
162	4	140	141
163	4	140	161
164	5	141	142
165	4	141	143
166	5	143	144
167	4	143	145
168	6	145	146
169	4	145	159
170	4	146	147
171	4	146	157
172	5	147	148
173	4	147	149
174	5	149	150
175	4	149	151
176	1	151	152
177	4	151	155
178	2	152	153
179	2	152	154
180	5	155	156
181	4	155	157
182	5	157	158
183	5	159	160
184	4	159	161
185	8	161	162
186	11	162	163
187	11	162	164
188	11	162	165
189	5	166	167
190	4	166	168
191	5	168	169
192	4	170	171
193	4	170	179
194	5	171	172
195	4	171	173
196	5	173	174
197	4	173	175
198	5	175	176
199	4	175	177
200	5	177	178
201	4	177	179
202	6	179	180
203	12	180	181
204	10	180	182
205	1	182	183
206	4	183	184
207	4	183	192
208	5	184	185
209	4	184	186
210	5	186	187
211	4	186	188
212	5	188	189
213	4	188	190
214	5	190	191
215	4	190	192
216	5	192	193
217	5	194	195
218	4	194	196
219	5	196	197
220	8	198	199
221	4	198	203
222	11	199	200
223	11	199	201
224	11	199	202
225	5	203	204
226	5	205	206
227	4	205	207
228	5	207	208
229	12	210	211
230	6	210	212
231	4	212	213
232	4	212	224
233	5	213	214
234	4	213	215
235	5	215	216
236	4	215	217
237	5	217	218
238	4	217	219
239	6	219	220
240	4	219	224
241	12	220	221
242	13	220	222
243	14	222	223
244	5	224	225

Angles

1	4	104	103	105
2	4	75	74	76
3	2	21	70	71
4	1	101	103	105
5	4	31	30	32
6	1	143	145	159
7	4	146	147	148
8	4	115	114	116
9	4	48	47	49
10	1	182	183	184
11	4	43	45	46
12	3	113	112	209
13	4	167	166	168
14	4	107	110	111
15	4	166	168	169
16	1	3	5	7
17	1	36	35	45
18	1	127	126	196
19	3	151	152	153
20	4	62	61	63
21	1	13	86	91
22	1	108	107	110
23	4	54	56	57
24	1	38	40	43
25	1	114	113	207
26	4	133	134	135
27	6	86	87	89
28	4	128	127	129
29	4	191	190	192
30	1	14	13	86
31	6	51	50	52
32	1	132	170	179
33	1	105	107	110
34	4	186	188	189
35	4	100	101	102
36	4	71	72	73
37	1	103	105	107
38	6	49	50	53
39	5	27	28	29
40	1	109	108	210
41	6	198	199	200
42	1	58	59	61
43	6	200	199	202
44	1	146	157	155
45	4	185	184	186
46	4	150	149	151
47	1	108	210	211
48	4	206	205	207
49	4	134	136	137
50	4	30	32	33
51	1	14	15	84
52	8	179	180	181
53	4	215	217	218
54	3	1	112	209
55	4	78	80	81
56	1	47	49	50
57	3	2	1	97
58	6	163	162	164
59	1	32	34	47
60	4	135	134	136
61	1	1	2	95
62	4	61	63	64
63	4	2	95	96
64	3	42	41	98
65	6	22	21	70
66	1	28	29	49
67	6	131	132	182
68	1	170	179	177
69	1	199	198	203
70	1	212	213	215
71	1	184	186	188
72	1	146	147	149
73	4	113	114	115
74	4	3	5	6
75	1	141	140	161
76	1	11	13	86
77	1	127	129	131
78	1	22	23	25
79	1	23	22	56
80	1	183	192	190
81	1	112	113	207
82	1	59	61	63
83	4	20	82	83
84	1	152	151	155
85	6	131	132	133
86	4	94	93	95
87	1	21	20	82
88	4	102	101	103
89	4	73	72	74
90	4	24	23	25
91	2	68	70	71
92	4	16	18	19
93	1	35	36	38
94	1	71	80	78
95	4	103	105	106
96	6	49	50	52
97	4	187	186	188
98	4	126	196	197
99	4	198	203	204
100	4	82	84	85
101	2	1	112	113
102	1	1	2	3
103	1	219	220	222
104	4	12	11	13
105	4	58	59	60
106	1	171	170	179
107	6	200	199	201
108	1	72	74	76
109	1	149	151	155
110	1	151	155	157
111	1	132	131	194
112	4	83	82	84
113	1	98	100	101
114	4	183	184	185
115	4	100	110	111
116	1	140	161	159
117	4	205	207	208
118	1	213	215	217
119	1	13	86	87
120	1	145	146	157
121	2	132	182	180
122	6	161	162	163
123	4	114	116	117
124	1	29	49	47
125	4	170	171	172
126	1	134	133	168
127	1	8	7	93
128	7	177	179	180
129	6	20	21	22
130	1	118	205	207
131	1	2	3	5
132	1	41	98	100
133	1	113	207	205
134	6	201	199	202
135	1	126	127	129
136	1	9	11	13
137	1	220	219	224
138	1	21	58	67
139	1	175	177	179
140	4	127	129	130
141	4	23	25	26
142	1	5	7	93
143	1	36	38	40
144	4	4	3	5
145	1	125	126	196
146	4	6	5	7
147	4	10	9	11
148	4	64	63	65
149	4	59	61	62
150	1	7	8	9
151	1	76	78	80
152	4	142	141	143
153	1	210	212	224
154	4	195	194	196
155	4	172	171	173
156	6	49	50	51
157	1	9	8	91
158	1	63	65	67
159	4	174	173	175
160	1	219	220	221
161	1	58	67	65
162	1	139	140	161
163	4	106	105	107
164	1	15	16	18
165	4	77	76	78
166	4	72	74	75
167	1	170	171	173
168	4	175	177	178
169	1	125	126	127
170	1	140	161	162
171	1	118	119	203
172	1	21	22	23
173	1	107	108	210
174	1	213	212	224
175	2	40	41	98
176	4	144	143	145
177	4	71	80	81
178	1	116	118	205
179	1	34	47	49
180	1	5	7	8
181	6	133	132	170
182	5	124	125	126
183	1	87	86	91
184	6	161	162	165
185	6	198	199	202
186	4	66	65	67
187	1	133	168	166
188	1	30	29	49
189	5	138	139	140
190	1	101	100	110
191	3	153	152	154
192	1	138	166	168
193	1	34	35	36
194	4	101	103	104
195	4	118	205	206
196	1	41	98	99
197	4	9	11	12
198	1	8	91	86
199	1	184	183	192
200	4	184	186	187
201	1	145	159	161
202	4	19	18	20
203	4	79	78	80
204	4	173	175	176
205	4	44	43	45
206	1	29	49	50
207	1	159	161	162
208	1	211	210	212
209	4	22	56	57
210	1	171	173	175
211	6	86	87	88
212	5	220	222	223
213	4	113	207	208
214	1	136	138	139
215	6	88	87	90
216	4	76	78	79
217	1	129	131	194
218	1	132	133	134
219	1	182	183	192
220	7	132	170	171
221	1	21	22	56
222	1	32	34	35
223	1	112	113	114
224	1	100	110	107
225	7	21	58	59
226	1	7	93	95
227	1	119	120	122
228	9	221	220	222
229	1	119	203	198
230	1	149	151	152
231	4	219	224	225
232	6	58	21	70
233	1	133	134	136
234	4	145	159	160
235	4	26	25	27
236	1	139	140	141
237	1	98	100	110
238	1	147	146	157
239	6	51	50	53
240	4	8	91	92
241	1	38	40	41
242	1	118	119	120
243	1	122	124	198
244	4	147	149	150
245	3	97	1	112
246	4	155	157	158
247	4	60	59	61
248	1	14	15	16
249	4	34	47	48
250	1	11	13	14
251	1	217	219	224
252	1	146	145	159
253	1	173	175	177
254	1	58	67	68
255	1	27	54	56
256	1	139	138	166
257	1	22	56	54
258	4	39	38	40
259	1	70	71	80
260	1	186	188	190
261	6	20	21	58
262	4	178	177	179
263	4	212	213	214
264	1	41	40	43
265	1	99	98	100
266	7	65	67	68
267	1	140	141	143
268	1	131	194	196
269	1	124	198	199
270	1	188	190	192
271	4	22	23	24
272	4	119	203	204
273	4	8	9	10
274	1	136	138	166
275	4	151	155	156
276	4	17	16	18
277	1	18	20	82
278	1	120	122	124
279	4	86	91	92
280	1	74	76	78
281	1	179	180	182
282	1	67	68	70
283	1	15	84	82
284	3	151	152	154
285	1	29	30	32
286	6	88	87	89
287	1	113	114	116
288	4	218	217	219
289	4	141	143	144
290	1	210	212	213
291	4	35	36	37
292	1	105	107	108
293	4	7	93	94
294	1	124	198	203
295	1	119	118	205
296	4	119	120	121
297	1	147	149	151
298	1	116	118	119
299	1	145	146	147
300	6	131	132	170
301	1	143	145	146
302	8	181	180	182
303	4	214	213	215
304	4	133	168	169
305	6	163	162	165
306	6	164	162	165
307	1	120	119	203
308	1	20	82	84
309	1	7	8	91
310	4	117	116	118
311	1	16	15	84
312	1	40	43	45
313	1	35	45	43
314	5	13	14	15
315	1	16	18	20
316	4	213	215	216
317	1	3	2	95
318	1	129	131	132
319	4	33	32	34
320	1	25	27	28
321	1	212	224	219
322	4	27	54	55
323	1	18	20	21
324	4	55	54	56
325	2	21	70	68
326	4	130	129	131
327	4	2	3	4
328	8	69	68	70
329	4	123	122	124
330	4	126	127	128
331	2	180	182	183
332	1	126	196	194
333	4	140	141	142
334	6	52	50	53
335	4	131	194	195
336	6	170	132	182
337	1	114	116	118
338	4	36	38	39
339	1	183	184	186
340	4	120	122	123
341	6	20	21	70
342	4	74	76	77
343	8	67	68	69
344	1	70	71	72
345	4	29	30	31
346	4	93	95	96
347	6	161	162	164
348	1	34	35	45
349	2	2	1	112
350	1	141	143	145
351	4	121	120	122
352	4	194	196	197
353	3	40	41	42
354	1	35	34	47
355	1	23	25	27
356	1	217	219	220
357	4	212	224	225
358	4	63	65	66
359	4	37	36	38
360	2	132	182	183
361	6	133	132	182
362	4	15	16	17
363	4	160	159	161
364	6	86	87	90
365	4	15	84	85
366	4	40	43	44
367	4	138	166	167
368	4	183	192	193
369	1	59	58	67
370	1	100	101	103
371	1	71	72	74
372	1	122	124	125
373	1	8	9	11
374	1	132	133	168
375	4	156	155	157
376	4	171	173	174
377	6	198	199	201
378	4	146	157	158
379	1	125	124	198
380	1	28	29	30
381	4	216	215	217
382	1	25	27	54
383	1	2	95	93
384	4	148	147	149
385	1	72	71	80
386	6	22	21	58
387	1	108	210	212
388	1	134	136	138
389	4	190	192	193
390	4	35	45	46
391	4	137	136	138
392	6	89	87	90
393	1	30	32	34
394	4	176	175	177
395	1	215	217	219
396	1	107	108	109
397	4	189	188	190
398	1	61	63	65
399	4	188	190	191
400	1	28	27	54
401	1	170	179	180

Dihedrals

1	12	40	41	98	100
1	13	40	41	98	100
2	1	216	215	217	219
3	1	36	38	40	41
4	1	119	118	205	207
5	3	97	1	112	209
6	1	21	58	59	61
7	2	180	182	183	184
8	1	15	84	82	83
9	1	10	9	8	91
10	1	98	100	110	107
11	1	220	219	224	225
12	1	142	141	143	144
13	1	118	119	203	204
14	1	121	120	119	203
15	1	7	8	9	10
16	7	22	21	70	68
16	8	22	21	70	68
17	1	128	127	126	196
18	1	183	192	190	188
19	5	15	14	13	86
20	1	12	11	13	14
21	1	23	22	56	54
22	1	2	3	5	6
23	1	19	18	20	21
24	1	206	205	207	208
25	6	47	49	50	51
26	14	221	220	219	224
27	1	58	59	61	62
28	5	27	28	29	30
29	4	91	8	7	93
30	1	100	101	103	104
31	1	141	143	145	159
32	1	38	40	43	45
33	9	67	68	70	71
34	6	129	131	132	170
35	1	182	183	184	186
36	6	140	161	162	164
37	1	132	170	179	180
38	1	1	2	3	5
39	1	134	136	138	139
40	2	1	112	113	114
41	1	144	143	145	146
42	1	186	184	183	192
43	1	4	3	2	95
44	1	98	100	101	103
45	7	131	132	182	180
45	8	131	132	182	180
46	1	34	35	36	37
47	1	210	212	213	214
48	1	184	183	192	190
49	2	43	40	41	98
50	1	75	74	76	78
51	1	35	45	43	40
52	1	10	9	11	12
53	6	20	21	22	23
54	1	118	119	120	121
55	1	122	124	198	199
56	1	145	146	147	148
57	1	218	217	219	224
58	1	131	194	196	197
59	6	133	132	170	171
60	1	141	143	145	146
61	1	126	196	194	131
62	1	172	171	170	179
63	14	105	107	108	109
64	6	159	161	162	164
65	1	146	147	149	151
66	3	2	1	112	113
67	1	23	25	27	28
68	1	15	16	18	20
69	1	113	114	116	118
70	1	128	127	129	131
71	2	38	40	41	42
72	7	133	132	182	183
72	8	133	132	182	183
73	6	56	22	21	70
74	9	21	70	68	67
75	1	34	35	45	43
76	1	103	105	107	108
77	1	29	30	32	33
78	1	29	49	47	48
79	3	97	1	112	113
80	1	60	59	61	62
81	1	139	138	166	167
82	1	105	107	110	111
83	14	41	98	100	110
84	1	124	198	203	204
85	1	112	113	114	116
86	1	156	155	157	158
87	1	28	29	49	50
88	1	102	101	103	105
89	1	137	136	138	166
90	1	34	47	49	50
91	5	138	139	140	161
92	14	58	67	68	70
93	10	40	41	98	99
93	11	40	41	98	99
94	1	14	15	84	85
95	4	45	35	34	47
96	1	148	147	146	157
97	1	216	215	217	218
98	1	71	80	78	76
99	1	119	118	205	206
100	1	132	133	134	136
101	1	21	58	59	60
102	1	33	32	34	47
103	1	143	145	159	161
104	1	215	213	212	224
105	1	173	175	177	179
106	2	68	70	71	80
107	1	35	36	38	40
108	6	20	21	58	59
109	1	182	183	192	193
110	1	122	120	119	203
111	14	217	219	220	222
112	1	16	18	20	82
113	14	211	210	212	224
114	9	132	182	180	181
115	1	101	103	105	106
116	14	99	98	100	101
117	6	20	21	22	56
118	1	134	136	138	166
119	4	147	146	145	159
120	1	38	36	35	45
121	1	170	179	177	178
122	1	120	122	124	198
123	1	72	71	80	78
124	1	187	186	188	189
125	2	21	70	71	80
126	1	114	113	207	205
127	1	72	74	76	77
128	1	73	72	74	76
129	1	139	140	141	142
130	1	38	40	43	44
131	1	210	212	224	219
132	1	79	78	80	81
133	2	42	41	40	43
134	1	9	11	13	14
135	1	213	215	217	219
136	7	22	21	70	71
136	8	22	21	70	71
137	1	31	30	32	34
138	1	94	93	95	96
139	9	179	180	182	183
140	1	146	145	159	160
141	1	39	38	40	41
142	1	22	23	25	26
143	14	105	107	108	210
144	1	44	43	45	46
145	1	59	61	63	65
146	6	168	133	132	182
147	1	8	9	11	12
148	6	200	199	198	203
149	1	186	188	190	192
150	1	214	213	212	224
151	1	117	116	118	119
152	1	186	188	190	191
153	1	25	23	22	56
154	1	115	114	113	207
155	1	28	29	49	47
156	1	127	126	196	194
157	2	149	151	152	153
158	1	7	8	91	92
159	1	129	127	126	196
160	1	9	8	91	86
161	6	134	133	132	182
162	1	59	58	67	65
163	1	3	2	95	96
164	5	27	28	29	49
165	1	15	16	18	19
166	1	125	126	196	197
167	1	113	114	116	117
168	1	128	127	129	130
169	1	23	25	27	54
170	14	65	67	68	69
171	1	175	177	179	180
172	1	14	13	86	87
173	1	188	190	192	193
174	1	152	151	155	157
175	1	174	173	175	177
176	1	183	184	186	188
177	6	18	20	21	58
178	7	170	132	182	183
178	8	170	132	182	183
179	1	183	192	190	191
180	1	7	93	95	96
181	1	16	18	20	21
182	5	25	27	28	29
183	14	177	179	180	181
184	1	112	113	114	115
185	1	41	40	43	45
186	1	70	71	72	74
187	1	2	95	93	7
188	5	11	13	14	15
189	1	58	67	65	66
190	18	221	220	222	223
190	19	221	220	222	223
191	1	63	65	67	68
192	14	170	179	180	181
193	1	210	212	224	225
194	6	67	58	21	70
195	1	64	63	65	67
196	1	62	61	63	65
197	6	182	132	131	194
198	1	21	58	67	65
199	1	116	118	205	206
200	5	138	139	140	141
201	1	32	30	29	49
202	1	195	194	196	197
203	1	34	35	45	46
204	6	13	86	87	88
205	1	100	110	107	105
206	1	137	136	138	139
207	4	32	34	35	36
208	5	13	14	15	16
209	1	14	13	86	91
210	4	5	7	8	9
211	1	132	131	194	196
212	1	214	213	215	217
213	1	104	103	105	107
214	1	87	86	91	92
215	1	123	122	124	125
216	1	126	127	129	131
217	1	144	143	145	159
218	2	207	113	112	209
219	14	217	219	220	221
220	1	218	217	219	220
221	1	21	20	82	83
222	1	136	134	133	168
223	1	133	134	136	138
224	6	90	87	86	91
225	1	135	134	136	137
226	1	119	203	198	124
227	1	32	34	47	49
228	1	73	72	74	75
229	1	9	8	91	92
230	2	95	2	1	112
231	1	132	170	171	172
232	1	71	80	78	79
233	1	152	151	155	156
234	1	3	2	95	93
235	1	134	133	168	169
236	1	133	168	166	138
237	1	132	133	168	169
238	1	25	27	54	55
239	1	4	3	5	7
240	1	28	27	54	56
241	1	119	120	122	124
242	1	8	7	93	95
243	1	28	29	30	32
244	1	213	215	217	218
245	4	5	7	8	91
246	1	74	76	78	80
247	2	153	152	151	155
248	1	76	78	80	81
249	6	70	21	20	82
250	1	140	161	159	160
251	9	132	182	180	179
252	7	58	21	70	68
252	8	58	21	70	68
253	1	66	65	67	68
254	1	6	5	7	8
255	6	47	49	50	53
256	1	119	203	198	199
257	1	18	16	15	84
258	1	72	71	80	81
259	1	114	113	207	208
260	1	127	129	131	132
261	1	58	67	65	63
262	1	61	63	65	67
263	1	135	134	133	168
264	1	184	186	188	190
265	1	121	120	122	123
266	1	189	188	190	192
267	1	176	175	177	179
268	9	69	68	70	71
269	15	42	41	98	99
269	16	42	41	98	99
270	7	20	21	70	68
270	8	20	21	70	68
271	1	151	155	157	158
272	4	116	118	119	120
273	9	181	180	182	183
274	1	36	38	40	43
275	6	29	49	50	51
276	1	112	113	207	205
277	1	22	56	54	55
278	1	27	54	56	57
279	1	126	196	194	195
280	1	147	149	151	152
281	14	108	210	212	224
282	1	129	131	194	195
283	1	41	40	43	44
284	1	70	71	72	73
285	1	55	54	56	57
286	1	133	168	166	167
287	1	30	32	34	47
288	1	64	63	65	66
289	1	18	20	82	84
290	1	59	58	67	68
291	1	62	61	63	64
292	6	59	58	21	70
293	1	182	183	192	190
294	9	21	70	68	69
295	1	29	49	47	34
296	1	13	86	91	92
297	1	132	170	171	173
298	6	23	22	21	70
299	1	103	105	107	110
300	1	142	141	143	145
301	6	129	131	132	182
302	1	120	119	203	198
303	1	212	213	215	217
304	1	21	22	23	25
305	14	107	108	210	212
306	1	182	183	184	185
307	1	214	213	215	216
308	1	104	103	105	106
309	6	18	20	21	70
310	6	140	161	162	163
311	1	101	100	110	111
312	1	217	219	224	225
313	14	99	98	100	110
314	6	22	21	20	82
315	14	211	210	212	213
316	1	133	134	136	137
317	1	149	151	155	157
318	1	130	129	131	194
319	5	136	138	139	140
320	1	178	177	179	180
321	1	30	29	49	47
322	1	17	16	18	20
323	1	136	138	166	168
324	1	32	34	47	48
325	1	120	122	124	125
326	1	106	105	107	110
327	1	141	140	161	162
328	1	1	2	3	4
329	1	21	58	67	68
330	1	160	159	161	162
331	6	159	161	162	163
332	2	180	182	183	192
333	1	125	124	198	203
334	1	4	3	5	6
335	1	28	27	54	55
336	1	100	110	107	108
337	1	28	29	30	31
338	1	3	5	7	93
339	1	98	100	101	102
340	1	74	76	78	79
341	1	145	159	161	162
342	1	70	71	80	78
343	6	129	131	132	133
344	1	20	82	84	85
345	1	75	74	76	77
346	1	11	9	8	91
347	1	83	82	84	85
348	1	113	207	205	118
349	1	139	140	161	162
350	5	122	124	125	126
351	6	168	133	132	170
352	1	140	141	143	144
353	6	47	49	50	52
354	1	5	7	93	95
355	2	3	2	1	97
356	1	36	35	45	46
357	1	143	145	159	160
358	6	201	199	198	203
359	1	100	101	103	105
360	1	33	32	34	35
361	1	40	43	45	46
362	1	173	175	177	178
363	1	11	13	86	91
364	1	24	23	25	27
365	1	146	157	155	156
366	1	2	95	93	94
367	1	61	63	65	66
368	1	150	149	151	152
369	1	120	119	203	204
370	5	29	28	27	54
371	1	7	8	9	11
372	1	170	171	173	175
373	1	12	11	13	86
374	1	60	59	58	67
375	14	109	108	210	212
376	1	37	36	38	40
377	1	1	2	95	93
378	1	199	198	203	204
379	6	170	132	131	194
380	1	21	22	56	54
381	1	19	18	20	82
382	7	58	21	70	71
382	8	58	21	70	71
383	5	124	125	126	196
384	2	154	152	151	155
385	6	133	132	170	179
386	1	183	184	186	187
387	1	102	101	100	110
388	6	22	21	58	67
389	6	124	198	199	202
390	1	185	184	186	188
391	1	102	101	103	104
392	1	71	72	74	76
393	14	58	67	68	69