Title

143 atoms
152 bonds
265 angles
413 dihedrals
168 impropers

10 atom types
14 bond types
9 angle types
20 dihedral types
3 improper types
-11.39999962 88.60000038 xlo xhi
-3.647000074 96.35299993 ylo yhi
-3.038000107 96.96199989 zlo zhi
0.0 0.0 0.0 xy xz yz

Masses

1	14.00672
2	12.01078
3	1.007947
4	1.007947
5	12.01078
6	18.998403
7	15.99943
8	1.007947
9	15.99943
10	1.007947


Pair Coeffs

1	0.16769152	3.206876
2	0.086879315	3.4806469
3	0.015611343	2.5725815
4	0.014090815	1.1034277
5	0.10884061	3.3795318
6	0.061	3.1181455
7	0.2102061	3.0398122
8	0.015779483	2.6445434
9	0.20947353	2.99716
10	1.2326e-05	0.53453923

Bond Coeffs

1 harmonic	390.03554688505	1.390160554689
2 harmonic	505.144496193	1.019481865027
3 harmonic	422.7150220147	1.421786517481
4 harmonic	360.7852444772	1.387193227181
5 harmonic	397.2545789619	1.085358495916
6 harmonic	279.1350963404	1.454628925034
7 harmonic	492.76746816345	1.381897776683
8 harmonic	289.73813263395	1.498646816465
9 harmonic	340.45121009905	1.358690858053
10 harmonic	582.698766451	1.225198386222
11 harmonic	264.62148576755	1.52190126495
12 harmonic	370.04670688625	1.093899492634
13 harmonic	385.7604595587	1.369745182308
14 harmonic	543.5267831885	0.9716763312559


Angle Coeffs

1 harmonic	57.8982893754	126.8062420451
2 harmonic	55.42182150775	117.3465570514
3 harmonic	63.44422595415	115.5071327674
4 harmonic	34.066775159195	129.1835929926
5 harmonic	53.20531626545	116.5475862634
6 harmonic	14.32262199324	138.3184368373
7 harmonic	48.776492647595	115.6030999533
8 harmonic	65.09061609600001	110.3538806181
9 harmonic	201.41175231035	127.4691416191


Dihedral Coeffs

1 fourier 1	3.661930099076	2	180
2 fourier 1	1.193093382682	2	180
3 fourier 1	0.02021088501612	1	0
4 fourier 1	1.163235555439	2	180
5 fourier 1	0.02664938770063	3	0
6 fourier 1	3.101948770557	2	180
7 fourier 1	-0.4252153282372	1	0
8 fourier 1	1.809047390003	2	180
9 fourier 1	-0.04816277792592	1	0
10 fourier 1	0.9974165607242	2	180
11 fourier 1	2.348375642009	2	180
12 fourier 1	1.256156174911	1	0
13 fourier 1	0.1155372516788	3	0
14 fourier 1	0.09223874044423	3	0
15 fourier 1	0.3159935921949	2	180
16 fourier 1	0.3247796806857	1	180
17 fourier 1	0.1040663847541	3	0
18 fourier 1	2.687457892086	2	180
19 fourier 1	2.772607909663	2	180
20 fourier 1	0.09692684957115	1	0


Improper Coeffs

1 0.3666666666666667	-1	2
2 0.3333333333333333	-1	2
3 3.5	-1	2


Atoms

1	1	1	-0.41032901	4.994	-0.42699999	-0.315
2	1	2	0.109267	3.5810001	-0.227	-0.219
3	1	2	-0.40867701	2.9690001	0.67199999	-1
4	1	3	0.229698	3.5350001	1.2589999	-1.712
5	1	2	-0.158675	1.515	0.88300002	-0.889
6	1	3	0.20972399	1.049	1.637	-1.511
7	1	2	-0.033876002	0.78399998	0.16599999	-0.018999999
8	1	2	-0.033876002	-0.667	0.43599999	0.085000001
9	1	2	-0.172888	-1.115	1.175	1.114
10	1	3	0.20972399	-0.428	1.5549999	1.8609999
11	1	2	-0.38284501	-2.5469999	1.5	1.238
12	1	3	0.225867	-2.8829999	2.092	2.0799999
13	1	2	0.18375599	-3.4159999	1.076	0.31200001
14	1	1	-0.530146	-4.8049998	1.398	0.42199999
15	1	4	0.323672	-5.4850001	1.068	-0.29899999
16	1	2	-0.33544901	-2.9349999	0.26899999	-0.83200002
17	1	3	0.221855	-3.6570001	-0.046	-1.575
18	1	2	-0.24808601	-1.633	-0.068000004	-0.94499999
19	1	5	0.75397098	-1.154	-0.884	-2.1289999
20	1	6	-0.199405	-0.259	-1.853	-1.714
21	1	6	-0.199405	-0.52999997	-0.050999999	-3.0380001
22	1	6	-0.199405	-2.2030001	-1.526	-2.767
23	1	2	-0.239419	1.452	-0.86400002	0.84299999
24	1	5	0.75397098	0.65700001	-1.673	1.849
25	1	6	-0.199405	-0.51599997	-2.131	1.277
26	1	6	-0.199405	1.367	-2.7750001	2.2950001
27	1	6	-0.199405	0.34999999	-0.87699997	2.9360001
28	1	2	-0.36154601	2.789	-1.018	0.75
29	1	3	0.22575299	3.312	-1.726	1.381
30	1	4	0.37795499	5.572	0.12	-0.99199998
31	1	2	0.77159399	-5.1729999	1.977	1.2359999
32	1	7	-0.64274001	-5.0669999	1.52	2.404
33	1	2	-0.366541	-5.7930002	3.2909999	0.991
34	1	2	-0.071098	-5.9000001	3.763	-0.25999999
35	1	3	0.23069	-5.5349998	3.1860001	-1.101
36	1	2	-0.24201401	-6.5209999	5.079	-0.51599997
37	1	3	0.221779	-6.598	5.3940001	-1.546
38	1	2	-0.20186099	-6.967	5.8460002	0.50300002
39	1	5	0.027698999	-7.6560001	7.204	0.285
40	1	5	-0.12970699	-7.402	7.823	-1.1109999
41	1	8	0.092418998	-7.8930001	7.224	-1.9069999
42	1	8	0.092418998	-7.8210001	8.8509998	-1.166
43	1	8	0.092418998	-6.3130002	7.882	-1.322
44	1	2	-0.116602	-7.2030001	8.191	1.316
45	1	2	-0.142895	-5.9439998	8.5819998	1.564
46	1	3	0.221512	-5.1139998	8.1700001	1.005
47	1	2	0.0088219997	-5.704	9.592	2.622
48	1	3	0.22120699	-4.6859999	9.9020004	2.825
49	1	2	-0.340812	-6.7379999	10.116	3.3139999
50	1	2	0.58958298	-6.4889998	11.122	4.3610001
51	1	7	-0.49206901	-7.4429998	11.62	5.0159998
52	1	2	0.080751002	-8.1260004	9.6680002	3.007
53	1	3	0.21547	-8.9700003	10.086	3.5409999
54	1	2	-0.174665	-8.316	8.7419996	2.0539999
55	1	5	-0.024905	-9.6169996	8.1750002	1.5829999
56	1	5	-0.12925801	-10.458	9.2740002	0.90600002
57	1	8	0.096550003	-10.722	10.071	1.6339999
58	1	8	0.096550003	-9.8950005	9.7379999	0.068000004
59	1	8	0.096550003	-11.4	8.8450003	0.50199997
60	1	5	-0.12925801	-10.399	7.5500002	2.7539999
61	1	8	0.096550003	-10.704	8.3269997	3.487
62	1	8	0.096550003	-9.7749996	6.796	3.2820001
63	1	8	0.096550003	-11.316	7.0469999	2.3789999
64	1	5	-0.178863	-9.1929998	7.0830002	0.54699999
65	1	8	0.135187	-9.776	7.1729999	-0.39700001
66	1	8	0.135187	-9.4390001	6.0689998	0.93599999
67	1	2	-0.24201401	-6.868	5.2979999	1.887
68	1	3	0.221779	-7.2540002	5.8649998	2.7249999
69	1	2	-0.071098	-6.3119998	4.1030002	2.1159999
70	1	3	0.23069	-6.2529998	3.7320001	3.132
71	1	1	-0.41032901	5.473	-1.128	0.29300001
72	1	2	0.109267	5.0469999	-1.3279999	1.643
73	1	2	-0.40867701	5.6630001	-2.227	2.4219999
74	1	3	0.229698	6.4879999	-2.8150001	2.039
75	1	2	-0.158675	5.2140002	-2.438	3.809
76	1	3	0.20972399	5.7090001	-3.1930001	4.4089999
77	1	2	-0.033876002	4.197	-1.721	4.316
78	1	2	-0.033876002	3.7550001	-1.992	5.7010002
79	1	2	-0.117155	2.6489999	-2.73	5.895
80	1	3	0.20972399	2.085	-3.1099999	5.052
81	1	2	-0.44856599	2.1930001	-3.0550001	7.2579999
82	1	3	0.238554	1.296	-3.6470001	7.3870001
83	1	2	0.29624501	2.8889999	-2.631	8.3210001
84	1	1	-0.84317201	2.4560001	-2.954	9.6450005
85	1	4	0.37393099	1.595	-3.5220001	9.8079996
86	1	4	0.37393099	2.997	-2.6240001	10.475
87	1	2	-0.42062601	4.1139998	-1.824	8.1210003
88	1	3	0.23473901	4.6659999	-1.5089999	8.9980001
89	1	2	-0.201231	4.5289998	-1.488	6.8829999
90	1	5	0.75397098	5.7930002	-0.671	6.6950002
91	1	6	-0.199405	5.599	0.29800001	5.7270002
92	1	6	-0.199405	6.823	-1.505	6.302
93	1	6	-0.199405	6.1659999	-0.029999999	7.8649998
94	1	2	-0.239419	3.5150001	-0.69199997	3.464
95	1	5	0.75397098	2.3510001	0.117	4.0009999
96	1	6	-0.199405	2.632	0.57499999	5.2750001
97	1	6	-0.199405	2.0840001	1.22	3.2060001
98	1	6	-0.199405	1.222	-0.67799997	4.0440001
99	1	2	-0.36154601	3.9200001	-0.53799999	2.1860001
100	1	3	0.22575299	3.4300001	0.17	1.53
101	1	4	0.37795499	6.2659998	-1.676	-0.11
102	1	2	0.59507799	-5.4790001	11.444	4.579
103	1	7	-0.50284499	-4.5489998	10.595	4.5489998
104	1	2	-0.32941401	-5.217	12.858	4.9029999
105	1	2	0.014142	-3.9779999	13.299	5.177
106	1	3	0.228843	-3.1300001	12.626	5.1659999
107	1	2	-0.235056	-3.7460001	14.722	5.4980001
108	1	3	0.221779	-2.73	15.04	5.6939998
109	1	2	-0.20186099	-4.7680001	15.605	5.5419998
110	1	5	0.027698999	-4.4899998	17.087	5.8530002
111	1	5	-0.12970699	-5.7709999	17.909	6.1160002
112	1	8	0.092418998	-6.3769999	17.447001	6.9250002
113	1	8	0.092418998	-6.3899999	17.982	5.1960001
114	1	8	0.092418998	-5.5149999	18.945999	6.427
115	1	2	-0.116602	-3.598	17.219999	7.0489998
116	1	2	-0.16241901	-3.8180001	16.738001	8.2810001
117	1	3	0.221512	-4.7119999	16.169001	8.5030003
118	1	2	-0.052917998	-2.8150001	16.995001	9.3400002
119	1	3	0.23746	-2.9979999	16.597	10.33
120	1	2	-0.22278801	-1.701	17.714001	9.0710001
121	1	2	0.83874702	-0.69199997	17.981001	10.119
122	1	7	-0.46322799	-0.85100001	17.544001	11.291
123	1	9	-0.66075099	0.447	18.723	9.816
124	1	10	0.423338	1.146	18.914	10.523
125	1	2	0.014182	-1.493	18.242001	7.6929998
126	1	3	0.23052999	-0.616	18.83	7.4549999
127	1	2	-0.169034	-2.4100001	17.983999	6.7480001
128	1	5	-0.024905	-2.398	18.434	5.3210001
129	1	5	-0.12925801	-1.113	17.966	4.6110001
130	1	8	0.096550003	-0.21699999	18.457001	5.0469999
131	1	8	0.096550003	-0.99199998	16.865	4.7069998
132	1	8	0.096550003	-1.1569999	18.222	3.53
133	1	5	-0.12925801	-2.5179999	19.968	5.25
134	1	8	0.096550003	-3.4360001	20.313999	5.7719998
135	1	8	0.096550003	-1.64	20.454	5.7270002
136	1	8	0.096550003	-2.569	20.302	4.191
137	1	5	-0.178863	-3.6600001	17.749001	4.7030001
138	1	8	0.135187	-4.2729998	18.478001	4.125
139	1	8	0.135187	-3.3559999	16.983999	3.954
140	1	2	-0.235056	-6.1370001	15.105	5.2179999
141	1	3	0.221779	-6.9910002	15.767	5.2140002
142	1	2	0.014142	-6.3439999	13.816	4.9229999
143	1	3	0.228843	-7.3460002	13.475	4.6950002

Bonds

1	1	1	2
2	2	1	30
3	3	1	71
4	4	2	3
5	4	2	28
6	5	3	4
7	4	3	5
8	5	5	6
9	4	5	7
10	6	7	8
11	4	7	23
12	4	8	9
13	4	8	18
14	5	9	10
15	4	9	11
16	5	11	12
17	4	11	13
18	1	13	14
19	4	13	16
20	2	14	15
21	7	14	31
22	5	16	17
23	4	16	18
24	8	18	19
25	9	19	20
26	9	19	21
27	9	19	22
28	8	23	24
29	4	23	28
30	9	24	25
31	9	24	26
32	9	24	27
33	5	28	29
34	10	31	32
35	6	31	33
36	4	33	34
37	4	33	69
38	5	34	35
39	4	34	36
40	5	36	37
41	4	36	38
42	8	38	39
43	4	38	67
44	11	39	40
45	8	39	44
46	11	39	64
47	12	40	41
48	12	40	42
49	12	40	43
50	4	44	45
51	4	44	54
52	5	45	46
53	4	45	47
54	5	47	48
55	4	47	49
56	6	49	50
57	4	49	52
58	10	50	51
59	6	50	102
60	5	52	53
61	4	52	54
62	8	54	55
63	11	55	56
64	11	55	60
65	11	55	64
66	12	56	57
67	12	56	58
68	12	56	59
69	12	60	61
70	12	60	62
71	12	60	63
72	12	64	65
73	12	64	66
74	5	67	68
75	4	67	69
76	5	69	70
77	1	71	72
78	2	71	101
79	4	72	73
80	4	72	99
81	5	73	74
82	4	73	75
83	5	75	76
84	4	75	77
85	6	77	78
86	4	77	94
87	4	78	79
88	4	78	89
89	5	79	80
90	4	79	81
91	5	81	82
92	4	81	83
93	1	83	84
94	4	83	87
95	2	84	85
96	2	84	86
97	5	87	88
98	4	87	89
99	8	89	90
100	9	90	91
101	9	90	92
102	9	90	93
103	8	94	95
104	4	94	99
105	9	95	96
106	9	95	97
107	9	95	98
108	5	99	100
109	10	102	103
110	6	102	104
111	4	104	105
112	4	104	142
113	5	105	106
114	4	105	107
115	5	107	108
116	4	107	109
117	8	109	110
118	4	109	140
119	11	110	111
120	8	110	115
121	11	110	137
122	12	111	112
123	12	111	113
124	12	111	114
125	4	115	116
126	4	115	127
127	5	116	117
128	4	116	118
129	5	118	119
130	4	118	120
131	6	120	121
132	4	120	125
133	10	121	122
134	13	121	123
135	14	123	124
136	5	125	126
137	4	125	127
138	8	127	128
139	11	128	129
140	11	128	133
141	11	128	137
142	12	129	130
143	12	129	131
144	12	129	132
145	12	133	134
146	12	133	135
147	12	133	136
148	12	137	138
149	12	137	139
150	5	140	141
151	4	140	142
152	5	142	143

Angles

1	6	52	54	55
2	5	96	95	98
3	1	105	107	109
4	3	30	1	71
5	4	53	52	54
6	4	45	47	48
7	5	97	95	98
8	5	54	55	64
9	1	38	67	69
10	5	89	90	92
11	5	38	39	44
12	1	102	104	142
13	1	120	125	127
14	1	104	142	140
15	3	2	1	30
16	1	47	49	50
17	5	54	55	60
18	1	87	89	90
19	5	94	95	98
20	7	58	56	59
21	5	55	60	62
22	5	44	39	64
23	1	77	78	79
24	7	130	129	131
25	5	38	39	40
26	5	55	56	57
27	1	72	99	94
28	1	50	49	52
29	4	78	79	80
30	4	88	87	89
31	1	45	47	49
32	1	50	102	104
33	1	16	18	19
34	1	39	44	54
35	1	71	72	99
36	1	110	115	127
37	5	128	133	134
38	1	2	3	5
39	5	25	24	26
40	1	34	33	69
41	1	73	75	77
42	5	89	90	93
43	5	109	110	111
44	5	110	111	114
45	4	6	5	7
46	4	117	116	118
47	5	133	128	137
48	6	110	115	116
49	1	103	102	104
50	4	94	99	100
51	5	115	110	137
52	3	15	14	31
53	5	128	129	131
54	5	18	19	21
55	1	78	79	81
56	1	32	31	33
57	5	109	110	115
58	1	120	121	122
59	4	141	140	142
60	5	25	24	27
61	5	23	24	25
62	5	39	40	41
63	1	5	7	8
64	5	39	64	65
65	4	105	107	108
66	5	110	111	113
67	7	61	60	63
68	5	26	24	27
69	1	34	36	38
70	5	40	39	44
71	5	128	137	138
72	4	74	73	75
73	5	91	90	93
74	4	2	28	29
75	5	18	19	22
76	7	130	129	132
77	1	104	105	107
78	5	38	39	64
79	5	111	110	137
80	5	110	137	139
81	4	119	118	120
82	7	112	111	114
83	7	134	133	135
84	4	8	9	10
85	1	7	23	28
86	5	39	40	42
87	1	115	127	125
88	4	76	75	77
89	8	121	123	124
90	5	127	128	129
91	5	129	128	133
92	1	3	2	28
93	1	14	13	16
94	5	110	137	128
95	4	72	73	74
96	1	7	23	24
97	1	118	120	121
98	4	33	34	35
99	5	127	128	133
100	1	73	72	99
101	1	107	109	140
102	4	35	34	36
103	1	11	13	14
104	5	128	129	132
105	5	129	128	137
106	5	20	19	21
107	2	2	1	71
108	1	77	94	99
109	4	80	79	81
110	1	75	77	78
111	1	44	54	55
112	3	72	71	101
113	5	55	60	63
114	5	55	56	58
115	1	71	72	73
116	1	118	120	125
117	5	127	128	137
118	1	75	77	94
119	1	45	44	54
120	1	9	8	18
121	4	9	11	12
122	5	56	55	60
123	1	115	116	118
124	4	37	36	38
125	2	1	71	72
126	1	77	94	95
127	1	81	83	87
128	3	83	84	85
129	4	72	99	100
130	1	78	89	90
131	1	33	34	36
132	4	83	87	88
133	1	14	31	32
134	7	42	40	43
135	4	46	45	47
136	1	105	104	142
137	7	131	129	132
138	5	20	19	22
139	4	10	9	11
140	1	47	49	52
141	4	3	5	6
142	1	8	18	19
143	3	13	14	15
144	7	62	60	63
145	5	55	64	65
146	4	106	105	107
147	5	40	39	64
148	1	1	2	3
149	4	126	125	127
150	1	109	140	142
151	7	134	133	136
152	4	104	105	106
153	5	39	64	55
154	7	41	40	42
155	2	13	14	31
156	4	49	52	53
157	4	68	67	69
158	1	36	38	39
159	4	108	107	109
160	1	9	11	13
161	4	79	81	82
162	4	115	116	117
163	4	48	47	49
164	5	111	110	115
165	4	120	125	126
166	5	23	24	26
167	4	67	69	70
168	1	44	54	52
169	7	57	56	58
170	3	83	84	86
171	5	92	90	93
172	5	94	95	96
173	5	39	64	66
174	5	110	137	138
175	7	138	137	139
176	7	65	64	66
177	4	2	3	4
178	1	51	50	102
179	7	113	111	114
180	4	17	16	18
181	1	31	33	69
182	4	4	3	5
183	1	84	83	87
184	4	44	45	46
185	1	3	5	7
186	1	8	9	11
187	4	33	69	70
188	4	38	67	68
189	5	89	90	91
190	1	102	104	105
191	1	81	83	84
192	1	78	89	87
193	1	78	77	94
194	1	115	127	128
195	1	31	33	34
196	1	49	52	54
197	1	120	121	123
198	4	140	142	143
199	5	56	55	64
200	4	116	118	119
201	1	77	78	89
202	7	112	111	113
203	5	23	24	27
204	1	8	18	16
205	7	57	56	59
206	5	39	40	43
207	5	94	95	97
208	5	55	60	61
209	4	13	16	17
210	3	1	71	101
211	9	122	121	123
212	4	12	11	13
213	5	128	129	130
214	1	5	7	23
215	1	50	102	103
216	1	24	23	28
217	5	128	137	139
218	1	44	45	47
219	1	8	7	23
220	4	73	75	76
221	1	36	38	67
222	1	72	73	75
223	4	82	81	83
224	3	85	84	86
225	1	7	8	9
226	7	135	133	136
227	5	110	111	112
228	5	128	133	136
229	1	33	69	67
230	1	13	16	18
231	5	60	55	64
232	5	55	56	59
233	5	18	19	20
234	1	107	109	110
235	1	49	50	102
236	4	23	28	29
237	1	121	120	125
238	6	39	44	45
239	1	7	8	18
240	1	49	50	51
241	5	54	55	56
242	5	96	95	97
243	6	125	127	128
244	1	83	87	89
245	1	14	31	33
246	1	2	28	23
247	7	61	60	62
248	1	11	13	16
249	4	104	142	143
250	4	34	36	37
251	1	116	115	127
252	1	95	94	99
253	5	21	19	22
254	5	55	64	66
255	5	91	90	92
256	5	128	133	135
257	1	116	118	120
258	1	79	78	89
259	5	109	110	137
260	4	109	140	141
261	1	110	109	140
262	7	41	40	43
263	1	79	81	83
264	1	39	38	67
265	1	1	2	28

Dihedrals

1	17	114	111	110	137
2	17	129	128	133	135
3	1	88	87	89	90
4	18	120	121	123	124
5	5	77	94	95	96
6	1	14	13	16	18
7	1	73	72	99	100
8	17	43	40	39	64
9	14	110	137	128	129
9	15	110	137	128	129
9	16	110	137	128	129
10	17	130	129	128	133
11	14	39	64	55	56
11	15	39	64	55	56
11	16	39	64	55	56
12	1	106	105	107	109
13	3	2	1	71	101
14	1	80	79	81	82
15	1	33	69	67	68
16	1	107	109	140	141
17	1	46	45	47	49
18	1	3	2	28	29
19	5	40	39	38	67
20	1	102	104	142	140
21	1	1	2	3	5
22	17	42	40	39	64
23	1	44	45	47	49
24	4	79	78	77	94
25	1	39	38	67	69
26	1	117	116	118	120
27	1	17	16	18	19
28	1	24	23	28	29
29	1	115	116	118	119
30	1	79	81	83	87
31	1	105	107	109	110
32	1	4	3	5	6
33	13	127	128	137	139
34	17	111	110	137	139
35	17	133	128	137	138
36	1	8	9	11	13
37	5	8	18	19	22
38	1	2	3	5	6
39	17	56	55	64	66
40	14	39	64	55	60
40	15	39	64	55	60
40	16	39	64	55	60
41	2	81	83	84	85
42	4	89	78	77	94
43	4	5	7	8	18
44	17	59	56	55	64
45	1	81	83	87	88
46	5	116	115	110	137
47	13	109	110	137	138
48	1	8	7	23	24
49	1	77	94	99	100
50	13	44	39	64	55
51	1	6	5	7	23
52	1	77	78	79	81
53	13	127	128	133	134
54	5	87	89	90	93
55	1	5	7	23	24
56	17	58	56	55	60
57	2	16	13	14	31
58	5	78	89	90	92
59	5	16	18	19	21
60	17	40	39	64	65
61	1	110	115	127	128
62	5	125	127	128	133
63	17	63	60	55	64
64	13	54	55	56	58
65	13	38	39	64	55
66	1	118	120	125	126
67	1	83	87	89	90
68	4	5	7	8	9
69	17	132	129	128	133
70	1	78	77	94	95
71	1	37	36	38	39
72	1	3	5	7	8
73	4	18	8	7	23
74	14	111	110	137	128
74	15	111	110	137	128
74	16	111	110	137	128
75	17	58	56	55	64
76	1	102	104	105	106
77	1	7	8	18	19
78	1	106	105	104	142
79	1	82	81	83	87
80	1	72	99	94	95
81	1	79	81	83	84
82	13	54	55	60	63
83	1	45	44	54	52
84	1	44	54	52	49
85	1	73	75	77	94
86	17	56	55	60	62
87	5	7	23	24	27
88	1	71	72	73	74
89	2	3	2	1	30
90	1	31	33	69	67
91	17	133	128	137	139
92	1	37	36	38	67
93	1	107	109	140	142
94	1	39	44	45	46
95	5	98	95	94	99
96	1	11	13	16	18
97	2	28	2	1	30
98	5	40	39	44	45
99	2	99	72	71	101
100	13	109	110	137	139
101	4	75	77	78	89
102	1	39	38	67	68
103	5	26	24	23	28
104	1	110	115	116	117
105	13	127	128	133	135
106	3	30	1	71	101
107	13	109	110	111	114
108	1	8	9	11	12
109	5	8	18	19	21
110	10	52	49	50	102
111	1	12	11	13	14
112	1	75	73	72	99
113	1	118	120	125	127
114	1	109	140	142	143
115	1	117	116	115	127
116	1	9	11	13	16
117	1	1	2	28	23
118	1	110	109	140	142
119	13	127	128	129	130
120	1	77	78	79	80
121	1	104	105	107	108
122	5	111	110	115	127
123	5	87	89	90	92
124	10	50	102	104	142
125	1	78	89	87	88
126	1	9	8	18	19
127	5	78	89	90	91
128	1	36	34	33	69
129	5	16	18	19	20
130	5	54	44	39	64
131	10	118	120	121	122
132	5	44	54	55	64
133	1	110	115	127	125
134	14	110	137	128	133
134	15	110	137	128	133
134	16	110	137	128	133
135	8	15	14	31	33
135	9	15	14	31	33
136	13	109	110	137	128
137	17	130	129	128	137
138	1	78	79	81	83
139	1	33	69	67	38
140	1	13	16	18	19
141	1	45	47	49	52
142	13	38	39	40	42
143	1	79	78	89	90
144	13	114	111	110	115
145	1	115	127	125	120
146	13	54	55	60	62
147	1	4	3	2	28
148	17	56	55	60	61
149	1	74	73	75	77
150	6	13	14	31	32
150	7	13	14	31	32
151	13	41	40	39	44
152	5	111	110	115	116
153	1	72	73	75	77
154	1	121	120	125	126
155	1	1	2	28	29
156	13	110	137	128	127
157	17	59	56	55	60
158	17	131	129	128	133
159	13	44	39	64	66
160	1	7	8	9	10
161	17	136	133	128	137
162	4	75	77	78	79
163	5	127	115	110	137
164	1	9	8	18	16
165	1	34	36	38	39
166	13	127	128	129	131
167	1	48	47	49	50
168	1	104	105	107	109
169	13	38	39	64	66
170	5	77	94	95	98
171	5	125	127	128	137
172	5	137	110	109	140
173	1	45	44	54	55
174	1	8	18	16	17
175	5	115	127	128	129
176	10	49	50	102	103
177	1	39	44	54	55
178	1	31	33	69	70
179	10	118	120	121	123
180	13	39	64	55	54
181	17	132	129	128	137
182	1	75	77	94	99
183	5	107	109	110	137
184	1	10	9	11	13
185	1	34	36	38	67
186	10	50	102	104	105
187	1	79	78	89	87
188	10	51	50	102	103
189	1	50	49	52	54
190	11	15	14	31	32
190	12	15	14	31	32
191	1	49	52	54	55
192	13	43	40	39	44
193	1	78	79	81	82
194	1	116	115	127	125
195	1	118	116	115	127
196	5	107	109	110	111
197	1	10	9	8	18
198	17	113	111	110	137
199	1	121	120	125	127
200	5	52	54	55	64
201	2	85	84	83	87
202	10	32	31	33	69
203	13	38	39	40	41
204	1	104	142	140	109
205	5	109	110	115	127
206	10	32	31	33	34
207	13	42	40	39	44
208	2	15	14	13	16
209	13	54	55	64	66
210	1	14	13	16	17
211	17	60	55	64	66
212	1	68	67	69	70
213	5	44	54	55	56
214	1	74	73	75	76
215	1	39	44	54	52
216	1	117	116	118	119
217	1	33	34	36	38
218	17	135	133	128	137
219	5	64	39	38	67
220	1	72	73	75	76
221	1	46	45	47	48
222	5	97	95	94	99
223	1	116	118	120	121
224	5	36	38	39	40
225	5	40	39	44	54
226	13	44	39	64	65
227	1	3	5	7	23
228	1	44	45	47	48
229	13	115	110	137	138
230	1	31	33	34	36
231	13	38	39	64	65
232	1	108	107	109	110
233	17	112	111	110	137
234	1	72	99	94	77
235	5	44	54	55	60
236	17	56	55	64	65
237	1	47	49	52	54
238	5	109	110	115	116
239	17	129	128	133	136
240	5	36	38	39	44
241	1	46	45	44	54
242	1	10	9	11	12
243	1	105	104	142	143
244	1	36	38	67	69
245	1	120	125	127	128
246	1	74	73	72	99
247	2	3	2	1	71
248	13	54	55	56	57
249	10	47	49	50	51
250	1	50	49	52	53
251	1	116	115	127	128
252	19	122	121	123	124
252	20	122	121	123	124
253	1	12	11	13	16
254	2	81	83	84	86
255	2	28	2	1	71
256	5	96	95	94	99
257	17	131	129	128	137
258	1	115	116	118	120
259	2	11	13	14	15
260	5	38	39	44	45
261	10	103	102	104	105
262	1	45	47	49	50
263	1	119	118	120	121
264	5	25	24	23	28
265	2	73	72	71	101
266	5	78	89	90	93
267	13	109	110	111	112
268	17	40	39	64	66
269	17	57	56	55	64
270	17	60	55	64	65
271	1	8	18	16	13
272	5	115	127	128	133
273	5	7	23	24	26
274	1	33	34	36	37
275	1	75	77	94	95
276	1	11	13	16	17
277	1	77	78	89	90
278	1	2	28	23	24
279	1	47	45	44	54
280	1	76	75	77	78
281	1	78	89	87	83
282	1	110	115	116	118
283	1	31	33	34	35
284	17	61	60	55	64
285	14	40	39	64	55
285	15	40	39	64	55
285	16	40	39	64	55
286	5	8	18	19	20
287	17	56	55	60	63
288	1	71	72	73	75
289	1	47	49	52	53
290	1	39	44	45	47
291	10	14	31	33	69
292	5	107	109	110	115
293	3	2	1	71	72
294	10	14	31	33	34
295	5	52	54	55	60
296	1	6	5	7	8
297	13	115	110	137	128
298	10	122	121	120	125
299	17	129	128	137	138
300	1	36	38	67	68
301	5	87	89	90	91
302	1	48	47	49	52
303	1	108	107	109	140
304	13	109	110	111	113
305	1	102	104	142	143
306	1	81	79	78	89
307	5	44	39	38	67
308	1	126	125	127	128
309	1	71	72	99	94
310	1	77	78	89	87
311	1	116	118	120	125
312	1	110	109	140	141
313	10	51	50	49	52
314	13	127	128	133	136
315	2	86	84	83	87
316	13	113	111	110	115
317	10	103	102	104	142
318	1	35	34	36	38
319	1	11	9	8	18
320	13	54	55	60	61
321	5	7	23	24	25
322	5	115	110	109	140
323	2	1	71	72	73
324	5	36	38	39	64
325	1	34	33	69	70
326	1	8	7	23	28
327	1	84	83	87	89
328	13	38	39	40	43
329	1	5	3	2	28
330	10	47	49	50	102
331	17	134	133	128	137
332	1	5	7	23	28
333	1	102	104	105	107
334	17	129	128	137	139
335	5	125	127	128	129
336	5	77	94	95	97
337	13	112	111	110	115
338	1	141	140	142	143
339	10	123	121	120	125
340	8	13	14	31	33
340	9	13	14	31	33
341	1	115	127	125	126
342	1	80	79	81	83
343	1	78	77	94	99
344	1	105	104	142	140
345	17	62	60	55	64
346	1	71	72	99	100
347	1	9	11	13	14
348	2	11	13	14	31
349	1	38	67	69	70
350	17	129	128	133	134
351	4	9	8	7	23
352	5	27	24	23	28
353	1	119	118	120	125
354	1	4	3	5	7
355	17	57	56	55	60
356	1	106	105	107	108
357	1	44	54	52	53
358	1	73	72	99	94
359	1	2	3	5	7
360	1	107	105	104	142
361	17	41	40	39	64
362	2	1	71	72	99
363	10	49	50	102	104
364	1	80	79	78	89
365	5	115	127	128	137
366	1	73	75	77	78
367	3	30	1	71	72
368	1	81	83	87	89
369	1	2	28	23	7
370	1	1	2	3	4
371	1	34	33	69	67
372	13	127	128	129	132
373	1	35	34	33	69
374	1	7	8	9	11
375	5	38	39	44	54
376	1	3	2	28	23
377	1	76	75	77	94
378	1	95	94	99	100
379	13	127	128	137	138
380	17	111	110	137	138
381	1	7	8	18	16
382	1	35	34	36	37
383	1	82	81	83	84
384	5	16	18	19	22
385	13	54	55	64	65
386	1	104	142	140	141
387	1	105	107	109	140
388	13	54	55	56	59
389	10	51	50	102	104
390	1	7	23	28	29
391	13	115	110	137	139
392	5	111	110	109	140
393	5	45	44	39	64
394	5	52	54	55	56
395	1	84	83	87	88
396	1	53	52	54	55

Impropers

11	1	23	28	7	24
12	1	118	120	116	119
17	1	11	12	13	9
20	1	23	7	24	28
24	1	38	36	39	67
29	1	120	125	118	121
42	1	87	88	89	83
45	1	13	14	16	11
46	1	120	118	121	125
47	1	77	94	75	78
53	1	83	87	81	84
54	1	99	94	100	72
60	1	16	18	13	17
62	1	16	13	17	18
70	2	1	71	2	30
76	1	33	34	69	31
78	1	8	9	18	7
81	1	75	76	77	73
82	1	18	16	19	8
83	1	89	90	78	87
91	1	34	36	33	35
92	1	44	45	54	39
100	1	120	121	125	118
107	1	77	78	94	75
109	1	13	11	14	16
110	2	14	13	15	31
115	1	33	31	34	69
116	2	71	101	1	72
120	1	104	102	105	142
124	1	36	34	37	38
126	1	107	108	109	105
130	1	115	116	127	110
134	1	50	49	51	102
140	1	54	52	55	44
147	1	34	35	36	33
150	1	94	77	95	99
154	1	79	78	80	81
156	1	69	67	70	33
157	1	116	117	118	115
160	1	142	104	140	143
166	1	47	49	45	48
169	1	28	2	23	29
174	1	115	127	110	116
176	1	118	119	120	116
177	1	116	115	117	118
180	1	127	128	115	125
181	1	2	1	3	28
192	1	78	79	89	77
193	1	69	70	33	67
200	1	54	44	52	55
202	1	9	11	8	10
204	2	71	1	72	101
207	1	13	16	11	14
211	1	79	80	81	78
213	1	142	143	104	140
216	1	52	49	53	54
218	1	105	106	107	104
219	1	94	99	77	95
220	1	8	18	7	9
228	1	125	127	120	126
255	1	115	110	116	127
256	3	121	122	123	120
266	1	107	105	108	109
278	1	83	84	87	81
289	1	45	44	46	47
290	1	89	87	90	78
308	1	69	33	67	70
313	1	104	105	142	102
316	2	84	86	83	85
322	1	49	52	47	50
323	1	72	99	71	73
327	1	38	39	67	36
330	1	49	47	50	52
337	1	79	81	78	80
339	1	83	81	84	87
341	1	142	140	143	104
342	1	45	46	47	44
343	1	38	67	36	39
362	1	75	77	73	76
364	1	87	89	83	88
365	1	31	32	33	14
370	1	49	50	52	47
374	1	5	6	7	3
375	1	3	5	2	4
378	1	52	54	49	53
384	1	102	50	103	104
396	1	2	3	28	1
397	1	44	54	39	45
404	1	11	13	9	12
407	1	109	107	110	140
410	1	125	126	127	120
415	1	140	109	141	142
420	1	36	37	38	34
423	1	102	104	50	103
426	1	78	77	79	89
427	1	52	53	54	49
428	1	109	140	107	110
435	1	105	107	104	106
442	1	67	38	68	69
445	2	1	30	71	2
447	1	73	72	74	75
449	1	104	142	102	105
451	1	109	110	140	107
454	1	28	29	2	23
455	1	105	104	106	107
456	1	81	83	79	82
457	1	50	102	49	51
458	1	7	8	23	5
463	1	89	78	87	90
470	1	102	103	104	50
472	1	116	118	115	117
482	1	44	39	45	54
484	1	7	5	8	23
487	1	73	75	72	74
488	1	78	89	77	79
495	1	33	69	31	34
505	1	36	38	34	37
506	1	3	4	5	2
508	1	81	82	83	79
511	1	127	125	128	115
520	1	140	142	109	141
523	1	72	73	99	71
525	1	75	73	76	77
526	1	67	68	69	38
528	1	47	45	48	49
533	1	11	9	12	13
536	2	71	72	101	1
541	1	23	24	28	7
546	1	94	95	99	77
547	1	99	72	94	100
554	1	72	71	73	99
556	1	18	8	16	19
557	1	5	7	3	6
560	3	121	123	120	122
564	1	28	23	29	2
565	1	73	74	75	72
573	2	1	2	30	71
578	1	77	75	78	94
586	1	47	48	49	45
588	1	118	116	119	120
597	1	34	33	35	36
606	1	18	19	8	16
610	1	31	33	14	32
612	1	54	55	44	52
614	1	125	120	126	127
615	1	31	14	32	33
616	2	84	85	86	83
618	2	84	83	85	86
619	1	87	83	88	89
623	1	127	115	125	128
633	1	99	100	72	94
637	1	3	2	4	5
638	1	9	10	11	8
642	1	8	7	9	18
644	1	45	47	44	46
661	1	7	23	5	8
664	2	14	31	13	15
666	1	9	8	10	11
667	1	140	141	142	109
685	1	16	17	18	13
687	3	121	120	122	123
690	1	67	69	38	68
692	1	81	79	82	83
704	2	14	15	31	13
707	1	2	28	1	3
708	1	50	51	102	49
716	1	107	109	105	108
720	1	5	3	6	7
