Title

143 atoms
152 bonds
265 angles
413 dihedrals
168 impropers

10 atom types
14 bond types
9 angle types
20 dihedral types
3 improper types
-11.39999962 88.60000038 xlo xhi
-3.647000074 96.35299993 ylo yhi
-3.038000107 96.96199989 zlo zhi
0.0 0.0 0.0 xy xz yz

Masses

1	14.00672
2	12.01078
3	1.007947
4	1.007947
5	12.01078
6	18.998403
7	15.99943
8	1.007947
9	15.99943
10	1.007947


Pair Coeffs

1	0.16769152	3.206876
2	0.086879315	3.4806469
3	0.015611343	2.5725815
4	0.014090815	1.1034277
5	0.10884061	3.3795318
6	0.061	3.1181455
7	0.2102061	3.0398122
8	0.015779483	2.6445434
9	0.20947353	2.99716
10	1.2326e-05	0.53453923

Bond Coeffs

1 harmonic	390.03554688505	1.390160554689
2 harmonic	505.144496193	1.019481865027
3 harmonic	422.7150220147	1.421786517481
4 harmonic	360.7852444772	1.387193227181
5 harmonic	397.2545789619	1.085358495916
6 harmonic	279.1350963404	1.454628925034
7 harmonic	492.76746816345	1.381897776683
8 harmonic	289.73813263395	1.498646816465
9 harmonic	340.45121009905	1.358690858053
10 harmonic	582.698766451	1.225198386222
11 harmonic	264.62148576755	1.52190126495
12 harmonic	370.04670688625	1.093899492634
13 harmonic	385.7604595587	1.369745182308
14 harmonic	543.5267831885	0.9716763312559


Angle Coeffs

1 harmonic	57.8982893754	126.8062420451
2 harmonic	55.42182150775	117.3465570514
3 harmonic	63.44422595415	115.5071327674
4 harmonic	34.066775159195	129.1835929926
5 harmonic	53.20531626545	116.5475862634
6 harmonic	14.32262199324	138.3184368373
7 harmonic	48.776492647595	115.6030999533
8 harmonic	65.09061609600001	110.3538806181
9 harmonic	201.41175231035	127.4691416191


Dihedral Coeffs

1 fourier 1	3.661930099076	2	180
2 fourier 1	1.193093382682	2	180
3 fourier 1	0.02021088501612	1	0
4 fourier 1	1.163235555439	2	180
5 fourier 1	0.02664938770063	3	0
6 fourier 1	3.101948770557	2	180
7 fourier 1	-0.4252153282372	1	0
8 fourier 1	1.809047390003	2	180
9 fourier 1	-0.04816277792592	1	0
10 fourier 1	0.9974165607242	2	180
11 fourier 1	2.348375642009	2	180
12 fourier 1	1.256156174911	1	0
13 fourier 1	0.1155372516788	3	0
14 fourier 1	0.09223874044423	3	0
15 fourier 1	0.3159935921949	2	180
16 fourier 1	0.3247796806857	1	180
17 fourier 1	0.1040663847541	3	0
18 fourier 1	2.687457892086	2	180
19 fourier 1	2.772607909663	2	180
20 fourier 1	0.09692684957115	1	0


Improper Coeffs

1 0.3666666666666667	-1	2
2 0.3333333333333333	-1	2
3 3.5	-1	2


Atoms

1	1	1	-0.41032901	4.994	-0.42699999	-0.315
2	1	2	0.109267	3.5810001	-0.227	-0.219
3	1	2	-0.40867701	2.9690001	0.67199999	-1
4	1	3	0.229698	3.5350001	1.2589999	-1.712
5	1	2	-0.158675	1.515	0.88300002	-0.889
6	1	3	0.20972399	1.049	1.637	-1.511
7	1	2	-0.033876002	0.78399998	0.16599999	-0.018999999
8	1	2	-0.033876002	-0.667	0.43599999	0.085000001
9	1	2	-0.172888	-1.115	1.175	1.114
10	1	3	0.20972399	-0.428	1.5549999	1.8609999
11	1	2	-0.38284501	-2.5469999	1.5	1.238
12	1	3	0.225867	-2.8829999	2.092	2.0799999
13	1	2	0.18375599	-3.4159999	1.076	0.31200001
14	1	1	-0.530146	-4.8049998	1.398	0.42199999
15	1	4	0.323672	-5.4850001	1.068	-0.29899999
16	1	2	-0.33544901	-2.9349999	0.26899999	-0.83200002
17	1	3	0.221855	-3.6570001	-0.046	-1.575
18	1	2	-0.24808601	-1.633	-0.068000004	-0.94499999
19	1	5	0.75397098	-1.154	-0.884	-2.1289999
20	1	6	-0.199405	-0.259	-1.853	-1.714
21	1	6	-0.199405	-0.52999997	-0.050999999	-3.0380001
22	1	6	-0.199405	-2.2030001	-1.526	-2.767
23	1	2	-0.239419	1.452	-0.86400002	0.84299999
24	1	5	0.75397098	0.65700001	-1.673	1.849
25	1	6	-0.199405	-0.51599997	-2.131	1.277
26	1	6	-0.199405	1.367	-2.7750001	2.2950001
27	1	6	-0.199405	0.34999999	-0.87699997	2.9360001
28	1	2	-0.36154601	2.789	-1.018	0.75
29	1	3	0.22575299	3.312	-1.726	1.381
30	1	4	0.37795499	5.572	0.12	-0.99199998
31	1	2	0.77159399	-5.1729999	1.977	1.2359999
32	1	7	-0.64274001	-5.0669999	1.52	2.404
33	1	2	-0.366541	-5.7930002	3.2909999	0.991
34	1	2	-0.071098	-5.9000001	3.763	-0.25999999
35	1	3	0.23069	-5.5349998	3.1860001	-1.101
36	1	2	-0.24201401	-6.5209999	5.079	-0.51599997
37	1	3	0.221779	-6.598	5.3940001	-1.546
38	1	2	-0.20186099	-6.967	5.8460002	0.50300002
39	1	5	0.027698999	-7.6560001	7.204	0.285
40	1	5	-0.12970699	-7.402	7.823	-1.1109999
41	1	8	0.092418998	-7.8930001	7.224	-1.9069999
42	1	8	0.092418998	-7.8210001	8.8509998	-1.166
43	1	8	0.092418998	-6.3130002	7.882	-1.322
44	1	2	-0.116602	-7.2030001	8.191	1.316
45	1	2	-0.142895	-5.9439998	8.5819998	1.564
46	1	3	0.221512	-5.1139998	8.1700001	1.005
47	1	2	0.0088219997	-5.704	9.592	2.622
48	1	3	0.22120699	-4.6859999	9.9020004	2.825
49	1	2	-0.340812	-6.7379999	10.116	3.3139999
50	1	2	0.58958298	-6.4889998	11.122	4.3610001
51	1	7	-0.49206901	-7.4429998	11.62	5.0159998
52	1	2	0.080751002	-8.1260004	9.6680002	3.007
53	1	3	0.21547	-8.9700003	10.086	3.5409999
54	1	2	-0.174665	-8.316	8.7419996	2.0539999
55	1	5	-0.024905	-9.6169996	8.1750002	1.5829999
56	1	5	-0.12925801	-10.458	9.2740002	0.90600002
57	1	8	0.096550003	-10.722	10.071	1.6339999
58	1	8	0.096550003	-9.8950005	9.7379999	0.068000004
59	1	8	0.096550003	-11.4	8.8450003	0.50199997
60	1	5	-0.12925801	-10.399	7.5500002	2.7539999
61	1	8	0.096550003	-10.704	8.3269997	3.487
62	1	8	0.096550003	-9.7749996	6.796	3.2820001
63	1	8	0.096550003	-11.316	7.0469999	2.3789999
64	1	5	-0.178863	-9.1929998	7.0830002	0.54699999
65	1	8	0.135187	-9.776	7.1729999	-0.39700001
66	1	8	0.135187	-9.4390001	6.0689998	0.93599999
67	1	2	-0.24201401	-6.868	5.2979999	1.887
68	1	3	0.221779	-7.2540002	5.8649998	2.7249999
69	1	2	-0.071098	-6.3119998	4.1030002	2.1159999
70	1	3	0.23069	-6.2529998	3.7320001	3.132
71	1	1	-0.41032901	5.473	-1.128	0.29300001
72	1	2	0.109267	5.0469999	-1.3279999	1.643
73	1	2	-0.40867701	5.6630001	-2.227	2.4219999
74	1	3	0.229698	6.4879999	-2.8150001	2.039
75	1	2	-0.158675	5.2140002	-2.438	3.809
76	1	3	0.20972399	5.7090001	-3.1930001	4.4089999
77	1	2	-0.033876002	4.197	-1.721	4.316
78	1	2	-0.033876002	3.7550001	-1.992	5.7010002
79	1	2	-0.117155	2.6489999	-2.73	5.895
80	1	3	0.20972399	2.085	-3.1099999	5.052
81	1	2	-0.44856599	2.1930001	-3.0550001	7.2579999
82	1	3	0.238554	1.296	-3.6470001	7.3870001
83	1	2	0.29624501	2.8889999	-2.631	8.3210001
84	1	1	-0.84317201	2.4560001	-2.954	9.6450005
85	1	4	0.37393099	1.595	-3.5220001	9.8079996
86	1	4	0.37393099	2.997	-2.6240001	10.475
87	1	2	-0.42062601	4.1139998	-1.824	8.1210003
88	1	3	0.23473901	4.6659999	-1.5089999	8.9980001
89	1	2	-0.201231	4.5289998	-1.488	6.8829999
90	1	5	0.75397098	5.7930002	-0.671	6.6950002
91	1	6	-0.199405	5.599	0.29800001	5.7270002
92	1	6	-0.199405	6.823	-1.505	6.302
93	1	6	-0.199405	6.1659999	-0.029999999	7.8649998
94	1	2	-0.239419	3.5150001	-0.69199997	3.464
95	1	5	0.75397098	2.3510001	0.117	4.0009999
96	1	6	-0.199405	2.632	0.57499999	5.2750001
97	1	6	-0.199405	2.0840001	1.22	3.2060001
98	1	6	-0.199405	1.222	-0.67799997	4.0440001
99	1	2	-0.36154601	3.9200001	-0.53799999	2.1860001
100	1	3	0.22575299	3.4300001	0.17	1.53
101	1	4	0.37795499	6.2659998	-1.676	-0.11
102	1	2	0.59507799	-5.4790001	11.444	4.579
103	1	7	-0.50284499	-4.5489998	10.595	4.5489998
104	1	2	-0.32941401	-5.217	12.858	4.9029999
105	1	2	0.014142	-3.9779999	13.299	5.177
106	1	3	0.228843	-3.1300001	12.626	5.1659999
107	1	2	-0.235056	-3.7460001	14.722	5.4980001
108	1	3	0.221779	-2.73	15.04	5.6939998
109	1	2	-0.20186099	-4.7680001	15.605	5.5419998
110	1	5	0.027698999	-4.4899998	17.087	5.8530002
111	1	5	-0.12970699	-5.7709999	17.909	6.1160002
112	1	8	0.092418998	-6.3769999	17.447001	6.9250002
113	1	8	0.092418998	-6.3899999	17.982	5.1960001
114	1	8	0.092418998	-5.5149999	18.945999	6.427
115	1	2	-0.116602	-3.598	17.219999	7.0489998
116	1	2	-0.16241901	-3.8180001	16.738001	8.2810001
117	1	3	0.221512	-4.7119999	16.169001	8.5030003
118	1	2	-0.052917998	-2.8150001	16.995001	9.3400002
119	1	3	0.23746	-2.9979999	16.597	10.33
120	1	2	-0.22278801	-1.701	17.714001	9.0710001
121	1	2	0.83874702	-0.69199997	17.981001	10.119
122	1	7	-0.46322799	-0.85100001	17.544001	11.291
123	1	9	-0.66075099	0.447	18.723	9.816
124	1	10	0.423338	1.146	18.914	10.523
125	1	2	0.014182	-1.493	18.242001	7.6929998
126	1	3	0.23052999	-0.616	18.83	7.4549999
127	1	2	-0.169034	-2.4100001	17.983999	6.7480001
128	1	5	-0.024905	-2.398	18.434	5.3210001
129	1	5	-0.12925801	-1.113	17.966	4.6110001
130	1	8	0.096550003	-0.21699999	18.457001	5.0469999
131	1	8	0.096550003	-0.99199998	16.865	4.7069998
132	1	8	0.096550003	-1.1569999	18.222	3.53
133	1	5	-0.12925801	-2.5179999	19.968	5.25
134	1	8	0.096550003	-3.4360001	20.313999	5.7719998
135	1	8	0.096550003	-1.64	20.454	5.7270002
136	1	8	0.096550003	-2.569	20.302	4.191
137	1	5	-0.178863	-3.6600001	17.749001	4.7030001
138	1	8	0.135187	-4.2729998	18.478001	4.125
139	1	8	0.135187	-3.3559999	16.983999	3.954
140	1	2	-0.235056	-6.1370001	15.105	5.2179999
141	1	3	0.221779	-6.9910002	15.767	5.2140002
142	1	2	0.014142	-6.3439999	13.816	4.9229999
143	1	3	0.228843	-7.3460002	13.475	4.6950002

Bonds

1	1	1	2
2	2	1	30
3	3	1	71
4	4	2	3
5	4	2	28
6	5	3	4
7	4	3	5
8	5	5	6
9	4	5	7
10	6	7	8
11	4	7	23
12	4	8	9
13	4	8	18
14	5	9	10
15	4	9	11
16	5	11	12
17	4	11	13
18	1	13	14
19	4	13	16
20	2	14	15
21	7	14	31
22	5	16	17
23	4	16	18
24	8	18	19
25	9	19	20
26	9	19	21
27	9	19	22
28	8	23	24
29	4	23	28
30	9	24	25
31	9	24	26
32	9	24	27
33	5	28	29
34	10	31	32
35	6	31	33
36	4	33	34
37	4	33	69
38	5	34	35
39	4	34	36
40	5	36	37
41	4	36	38
42	8	38	39
43	4	38	67
44	11	39	40
45	8	39	44
46	11	39	64
47	12	40	41
48	12	40	42
49	12	40	43
50	4	44	45
51	4	44	54
52	5	45	46
53	4	45	47
54	5	47	48
55	4	47	49
56	6	49	50
57	4	49	52
58	10	50	51
59	6	50	102
60	5	52	53
61	4	52	54
62	8	54	55
63	11	55	56
64	11	55	60
65	11	55	64
66	12	56	57
67	12	56	58
68	12	56	59
69	12	60	61
70	12	60	62
71	12	60	63
72	12	64	65
73	12	64	66
74	5	67	68
75	4	67	69
76	5	69	70
77	1	71	72
78	2	71	101
79	4	72	73
80	4	72	99
81	5	73	74
82	4	73	75
83	5	75	76
84	4	75	77
85	6	77	78
86	4	77	94
87	4	78	79
88	4	78	89
89	5	79	80
90	4	79	81
91	5	81	82
92	4	81	83
93	1	83	84
94	4	83	87
95	2	84	85
96	2	84	86
97	5	87	88
98	4	87	89
99	8	89	90
100	9	90	91
101	9	90	92
102	9	90	93
103	8	94	95
104	4	94	99
105	9	95	96
106	9	95	97
107	9	95	98
108	5	99	100
109	10	102	103
110	6	102	104
111	4	104	105
112	4	104	142
113	5	105	106
114	4	105	107
115	5	107	108
116	4	107	109
117	8	109	110
118	4	109	140
119	11	110	111
120	8	110	115
121	11	110	137
122	12	111	112
123	12	111	113
124	12	111	114
125	4	115	116
126	4	115	127
127	5	116	117
128	4	116	118
129	5	118	119
130	4	118	120
131	6	120	121
132	4	120	125
133	10	121	122
134	13	121	123
135	14	123	124
136	5	125	126
137	4	125	127
138	8	127	128
139	11	128	129
140	11	128	133
141	11	128	137
142	12	129	130
143	12	129	131
144	12	129	132
145	12	133	134
146	12	133	135
147	12	133	136
148	12	137	138
149	12	137	139
150	5	140	141
151	4	140	142
152	5	142	143

Angles

1	4	76	75	77
2	4	82	81	83
3	4	17	16	18
4	5	91	90	93
5	1	5	7	23
6	5	38	39	40
7	1	77	78	89
8	1	8	9	11
9	1	105	107	109
10	4	3	5	6
11	5	110	111	112
12	3	1	71	101
13	4	38	67	68
14	5	133	128	137
15	1	121	120	125
16	7	138	137	139
17	1	2	28	23
18	4	141	140	142
19	7	112	111	113
20	1	81	83	84
21	5	39	40	42
22	1	107	109	110
23	5	55	56	58
24	1	8	18	16
25	3	83	84	85
26	1	50	49	52
27	5	94	95	97
28	4	83	87	88
29	5	128	129	130
30	1	14	13	16
31	5	25	24	26
32	8	121	123	124
33	7	130	129	131
34	1	73	72	99
35	6	125	127	128
36	1	3	5	7
37	4	23	28	29
38	4	104	142	143
39	4	80	79	81
40	4	109	140	141
41	5	39	40	43
42	1	75	77	78
43	7	65	64	66
44	5	40	39	64
45	5	55	56	59
46	4	44	45	46
47	5	26	24	27
48	1	45	44	54
49	1	102	104	142
50	1	7	23	24
51	5	40	39	44
52	1	73	75	77
53	3	83	84	86
54	4	37	36	38
55	4	117	116	118
56	4	116	118	119
57	4	106	105	107
58	5	25	24	27
59	1	71	72	99
60	2	2	1	71
61	7	134	133	135
62	1	72	99	94
63	7	42	40	43
64	1	95	94	99
65	1	11	13	16
66	5	21	19	22
67	4	2	3	4
68	1	77	78	79
69	4	120	125	126
70	4	33	69	70
71	5	128	137	138
72	4	48	47	49
73	5	128	133	135
74	1	103	102	104
75	4	94	99	100
76	1	47	49	50
77	5	127	128	133
78	5	18	19	22
79	1	115	116	118
80	5	55	64	66
81	5	89	90	91
82	6	39	44	45
83	1	50	102	103
84	4	49	52	53
85	5	55	60	61
86	1	104	142	140
87	1	45	47	49
88	5	60	55	64
89	4	12	11	13
90	5	109	110	137
91	5	110	137	138
92	4	72	73	74
93	1	115	127	125
94	3	13	14	15
95	5	44	39	64
96	1	78	89	90
97	5	127	128	129
98	1	75	77	94
99	4	140	142	143
100	2	13	14	31
101	1	110	115	127
102	1	31	33	69
103	4	119	118	120
104	1	7	23	28
105	5	110	111	113
106	1	38	67	69
107	1	44	54	52
108	5	127	128	137
109	5	89	90	92
110	1	33	69	67
111	1	8	7	23
112	7	112	111	114
113	1	116	115	127
114	4	88	87	89
115	7	61	60	62
116	1	1	2	3
117	1	79	81	83
118	4	2	28	29
119	5	94	95	98
120	1	83	87	89
121	5	128	129	131
122	3	85	84	86
123	7	130	129	132
124	1	118	120	121
125	1	11	13	14
126	5	110	111	114
127	4	13	16	17
128	5	23	24	25
129	1	78	89	87
130	1	5	7	8
131	1	109	140	142
132	5	56	55	64
133	5	129	128	133
134	4	53	52	54
135	4	6	5	7
136	1	44	45	47
137	4	108	107	109
138	5	110	137	128
139	3	2	1	30
140	1	39	44	54
141	5	39	64	65
142	1	7	8	9
143	7	41	40	42
144	1	116	118	120
145	5	128	129	132
146	1	36	38	39
147	5	56	55	60
148	1	87	89	90
149	7	134	133	136
150	5	96	95	97
151	3	15	14	31
152	1	2	3	5
153	5	97	95	98
154	1	120	125	127
155	5	111	110	137
156	9	122	121	123
157	4	33	34	35
158	1	110	109	140
159	1	120	121	122
160	5	20	19	21
161	1	77	94	95
162	1	81	83	87
163	5	128	137	139
164	5	128	133	136
165	4	72	99	100
166	1	39	38	67
167	1	79	78	89
168	5	91	90	92
169	2	1	71	72
170	6	110	115	116
171	1	7	8	18
172	1	102	104	105
173	4	105	107	108
174	5	39	64	66
175	1	71	72	73
176	1	9	8	18
177	7	57	56	58
178	1	50	102	104
179	1	49	52	54
180	5	55	60	62
181	3	30	1	71
182	6	52	54	55
183	5	39	40	41
184	4	126	125	127
185	5	55	56	57
186	5	96	95	98
187	1	36	38	67
188	5	110	137	139
189	1	72	73	75
190	7	113	111	114
191	7	62	60	63
192	1	118	120	125
193	7	135	133	136
194	1	1	2	28
195	4	8	9	10
196	5	109	110	115
197	1	33	34	36
198	1	34	33	69
199	5	111	110	115
200	4	35	34	36
201	5	115	110	137
202	1	31	33	34
203	4	78	79	80
204	1	47	49	52
205	4	67	69	70
206	5	54	55	56
207	1	16	18	19
208	5	89	90	93
209	7	57	56	59
210	4	68	67	69
211	1	78	77	94
212	5	55	60	63
213	5	109	110	111
214	7	131	129	132
215	7	61	60	63
216	1	84	83	87
217	1	107	109	140
218	3	72	71	101
219	5	18	19	20
220	4	73	75	76
221	1	77	94	99
222	4	4	3	5
223	1	51	50	102
224	1	78	79	81
225	4	46	45	47
226	1	49	50	51
227	1	3	2	28
228	1	14	31	32
229	1	13	16	18
230	4	104	105	106
231	5	23	24	26
232	1	32	31	33
233	4	9	11	12
234	4	34	36	37
235	5	128	133	134
236	5	129	128	137
237	1	115	127	128
238	5	54	55	64
239	4	79	81	82
240	1	105	104	142
241	5	92	90	93
242	1	8	18	19
243	5	18	19	21
244	1	24	23	28
245	5	38	39	64
246	5	55	64	65
247	4	74	73	75
248	7	41	40	43
249	4	115	116	117
250	5	39	64	55
251	4	10	9	11
252	4	45	47	48
253	1	49	50	102
254	5	38	39	44
255	5	54	55	60
256	1	14	31	33
257	7	58	56	59
258	1	44	54	55
259	1	104	105	107
260	5	23	24	27
261	1	120	121	123
262	5	94	95	96
263	5	20	19	22
264	1	9	11	13
265	1	34	36	38

Dihedrals

1	10	50	102	104	142
2	1	34	33	69	70
3	1	14	13	16	18
4	17	59	56	55	64
5	17	58	56	55	64
6	1	2	28	23	24
7	1	72	99	94	77
8	17	57	56	55	64
9	2	28	2	1	30
10	1	115	127	125	126
11	1	8	7	23	24
12	5	115	127	128	133
13	1	48	47	49	52
14	5	127	115	110	137
15	1	11	9	8	18
16	5	125	127	128	133
17	5	111	110	115	127
18	1	50	49	52	53
19	17	63	60	55	64
20	17	56	55	64	66
21	17	60	55	64	65
22	13	109	110	137	128
23	17	56	55	60	61
24	17	135	133	128	137
25	14	110	137	128	133
25	15	110	137	128	133
25	16	110	137	128	133
26	1	38	67	69	70
27	5	137	110	109	140
28	5	36	38	39	64
29	1	44	45	47	49
30	2	1	71	72	99
31	10	123	121	120	125
32	1	8	7	23	28
33	5	36	38	39	44
34	13	127	128	133	136
35	10	122	121	120	125
36	1	104	142	140	109
37	8	15	14	31	33
37	9	15	14	31	33
38	13	54	55	64	65
39	13	54	55	56	59
40	13	38	39	40	43
41	1	10	9	8	18
42	1	73	72	99	94
43	5	115	127	128	137
44	1	78	89	87	88
45	5	107	109	110	137
46	13	44	39	64	66
47	5	97	95	94	99
48	1	81	83	87	89
49	1	8	9	11	12
50	10	52	49	50	102
51	2	15	14	13	16
52	1	9	8	18	19
53	1	10	9	11	13
54	10	51	50	49	52
55	10	51	50	102	103
56	10	49	50	102	104
57	1	105	107	109	140
58	17	129	128	133	135
59	1	39	44	45	47
60	14	40	39	64	55
60	15	40	39	64	55
60	16	40	39	64	55
61	1	31	33	69	70
62	1	36	38	67	68
63	1	1	2	28	23
64	1	78	79	81	83
65	1	11	13	16	18
66	1	74	73	75	77
67	13	109	110	111	114
68	1	3	5	7	23
69	13	127	128	137	139
70	13	38	39	64	66
71	2	81	83	84	86
72	5	54	44	39	64
73	10	32	31	33	69
74	1	78	77	94	95
75	1	102	104	142	143
76	5	38	39	44	54
77	17	56	55	64	65
78	2	16	13	14	31
79	2	99	72	71	101
80	5	8	18	19	20
81	1	73	72	99	100
82	1	115	116	118	119
83	1	110	115	116	118
84	1	44	45	47	48
85	1	8	18	16	13
86	1	37	36	38	39
87	1	9	8	18	16
88	1	45	47	49	50
89	1	5	7	23	28
90	1	6	5	7	8
91	1	141	140	142	143
92	1	107	109	140	142
93	1	82	81	83	84
94	11	15	14	31	32
94	12	15	14	31	32
95	1	1	2	28	29
96	13	38	39	40	42
97	2	73	72	71	101
98	1	84	83	87	88
99	1	33	34	36	37
100	1	78	79	81	82
101	5	87	89	90	92
102	1	118	116	115	127
103	1	75	77	94	99
104	17	59	56	55	60
105	10	47	49	50	51
106	1	35	34	33	69
107	4	79	78	77	94
108	5	116	115	110	137
109	17	57	56	55	60
110	1	8	18	16	17
111	1	81	79	78	89
112	5	115	127	128	129
113	1	80	79	78	89
114	1	1	2	3	5
115	10	14	31	33	34
116	10	49	50	102	103
117	1	80	79	81	83
118	17	129	128	133	134
119	17	40	39	64	65
120	1	33	69	67	38
121	10	47	49	50	102
122	5	125	127	128	129
123	1	39	44	45	46
124	5	7	23	24	25
125	1	106	105	107	109
126	13	54	55	60	63
127	1	11	13	16	17
128	1	74	73	75	76
129	1	47	49	52	53
130	13	109	110	111	113
131	1	121	120	125	127
132	14	110	137	128	129
132	15	110	137	128	129
132	16	110	137	128	129
133	2	85	84	83	87
134	13	127	128	137	138
135	1	106	105	104	142
136	13	38	39	64	65
137	2	81	83	84	85
138	10	103	102	104	105
139	1	45	44	54	52
140	1	39	38	67	69
141	5	36	38	39	40
142	1	4	3	5	7
143	1	110	109	140	142
144	1	77	94	99	100
145	1	83	87	89	90
146	5	111	110	109	140
147	2	3	2	1	30
148	1	12	11	13	16
149	1	47	45	44	54
150	5	16	18	19	21
151	5	111	110	115	116
152	19	122	121	123	124
152	20	122	121	123	124
153	13	127	128	129	131
154	5	52	54	55	64
155	1	102	104	105	106
156	5	78	89	90	91
157	1	120	125	127	128
158	17	133	128	137	138
159	5	64	39	38	67
160	1	108	107	109	110
161	3	2	1	71	101
162	10	118	120	121	123
163	17	61	60	55	64
164	1	107	109	140	141
165	2	11	13	14	31
166	1	73	75	77	78
167	1	80	79	81	82
168	1	117	116	115	127
169	17	113	111	110	137
170	5	87	89	90	91
171	17	136	133	128	137
172	1	109	140	142	143
173	4	75	77	78	79
174	1	116	115	127	125
175	13	44	39	64	55
176	13	112	111	110	115
177	1	33	69	67	68
178	1	1	2	3	4
179	10	32	31	33	34
180	5	77	94	95	96
181	1	82	81	83	87
182	5	26	24	23	28
183	2	11	13	14	15
184	1	106	105	107	108
185	17	130	129	128	137
186	5	40	39	44	45
187	10	103	102	104	142
188	3	30	1	71	72
189	1	71	72	73	74
190	5	96	95	94	99
191	13	109	110	111	112
192	1	14	13	16	17
193	13	39	64	55	54
194	13	38	39	64	55
195	1	39	38	67	68
196	1	4	3	5	6
197	1	7	8	9	11
198	1	110	109	140	141
199	1	46	45	47	49
200	1	5	7	23	24
201	1	76	75	77	78
202	1	95	94	99	100
203	1	77	78	79	81
204	1	7	23	28	29
205	1	7	8	18	16
206	8	13	14	31	33
206	9	13	14	31	33
207	5	16	18	19	20
208	1	31	33	34	36
209	1	116	118	120	125
210	1	36	34	33	69
211	13	127	128	129	130
212	1	13	16	18	19
213	1	75	77	94	95
214	1	105	104	142	140
215	4	18	8	7	23
216	1	45	44	54	55
217	13	127	128	133	135
218	1	88	87	89	90
219	1	79	81	83	87
220	1	77	78	89	90
221	1	107	105	104	142
222	13	54	55	56	58
223	1	108	107	109	140
224	1	72	73	75	77
225	5	8	18	19	22
226	14	111	110	137	128
226	15	111	110	137	128
226	16	111	110	137	128
227	1	117	116	118	120
228	1	35	34	36	38
229	1	9	11	13	14
230	17	134	133	128	137
231	14	39	64	55	60
231	15	39	64	55	60
231	16	39	64	55	60
232	13	44	39	64	65
233	4	5	7	8	9
234	1	81	83	87	88
235	1	118	120	125	127
236	1	45	47	49	52
237	1	10	9	11	12
238	1	39	44	54	52
239	1	6	5	7	23
240	1	34	36	38	67
241	17	111	110	137	139
242	1	119	118	120	125
243	17	132	129	128	137
244	5	52	54	55	60
245	5	109	110	115	127
246	4	75	77	78	89
247	1	53	52	54	55
248	17	131	129	128	137
249	1	104	142	140	141
250	1	116	115	127	128
251	1	8	9	11	13
252	1	104	105	107	109
253	1	48	47	49	50
254	1	46	45	47	48
255	5	44	54	55	64
256	1	75	73	72	99
257	17	129	128	133	136
258	1	77	78	79	80
259	17	114	111	110	137
260	5	7	23	24	27
261	4	89	78	77	94
262	5	107	109	110	111
263	1	79	81	83	84
264	1	77	78	89	87
265	6	13	14	31	32
265	7	13	14	31	32
266	1	72	99	94	95
267	5	25	24	23	28
268	17	130	129	128	133
269	1	110	115	116	117
270	1	37	36	38	67
271	1	126	125	127	128
272	1	73	75	77	94
273	10	14	31	33	69
274	13	113	111	110	115
275	1	46	45	44	54
276	13	115	110	137	139
277	13	127	128	133	134
278	5	107	109	110	115
279	1	7	8	18	19
280	3	2	1	71	72
281	17	62	60	55	64
282	1	110	115	127	125
283	5	40	39	38	67
284	17	56	55	60	63
285	13	54	55	56	57
286	13	38	39	40	41
287	5	78	89	90	93
288	1	72	73	75	76
289	5	8	18	19	21
290	1	117	116	118	119
291	1	115	116	118	120
292	1	35	34	36	37
293	1	105	104	142	143
294	1	118	120	125	126
295	1	2	3	5	7
296	5	115	110	109	140
297	13	109	110	137	139
298	17	41	40	39	64
299	1	5	3	2	28
300	17	111	110	137	138
301	5	40	39	44	54
302	1	79	78	89	87
303	1	4	3	2	28
304	13	41	40	39	44
305	1	116	118	120	121
306	1	68	67	69	70
307	13	54	55	60	62
308	1	84	83	87	89
309	1	3	5	7	8
310	5	27	24	23	28
311	1	33	34	36	38
312	1	3	2	28	23
313	1	121	120	125	126
314	5	87	89	90	93
315	1	34	33	69	67
316	17	129	128	137	139
317	1	76	75	77	94
318	4	9	8	7	23
319	5	125	127	128	137
320	1	104	105	107	108
321	3	30	1	71	101
322	1	39	44	54	55
323	1	71	72	99	94
324	17	40	39	64	66
325	5	77	94	95	98
326	5	7	23	24	26
327	1	34	36	38	39
328	1	74	73	72	99
329	1	47	49	52	54
330	17	112	111	110	137
331	17	132	129	128	133
332	1	78	89	87	83
333	14	39	64	55	56
333	15	39	64	55	56
333	16	39	64	55	56
334	10	118	120	121	122
335	17	131	129	128	133
336	18	120	121	123	124
337	4	5	7	8	18
338	10	50	102	104	105
339	1	44	54	52	49
340	5	44	54	55	56
341	13	115	110	137	138
342	5	45	44	39	64
343	1	50	49	52	54
344	17	43	40	39	64
345	5	16	18	19	22
346	1	119	118	120	121
347	13	43	40	39	44
348	17	60	55	64	66
349	5	38	39	44	45
350	13	127	128	129	132
351	17	56	55	60	62
352	1	102	104	105	107
353	5	78	89	90	92
354	5	52	54	55	56
355	5	98	95	94	99
356	1	3	2	28	29
357	17	133	128	137	139
358	17	42	40	39	64
359	13	42	40	39	44
360	1	78	77	94	99
361	1	115	127	125	120
362	1	24	23	28	29
363	1	71	72	99	100
364	1	2	3	5	6
365	1	7	8	9	10
366	1	44	54	52	53
367	5	44	54	55	60
368	13	109	110	137	138
369	2	1	71	72	73
370	2	28	2	1	71
371	1	31	33	69	67
372	1	110	115	127	128
373	13	54	55	64	66
374	13	54	55	60	61
375	1	105	107	109	110
376	13	114	111	110	115
377	2	3	2	1	71
378	5	109	110	115	116
379	1	17	16	18	19
380	1	2	28	23	7
381	13	110	137	128	127
382	17	129	128	137	138
383	1	49	52	54	55
384	1	9	11	13	16
385	17	58	56	55	60
386	1	102	104	142	140
387	10	51	50	102	104
388	2	86	84	83	87
389	5	44	39	38	67
390	5	77	94	95	97
391	1	12	11	13	14
392	1	79	78	89	90
393	1	31	33	34	35
394	1	36	38	67	69
395	1	71	72	73	75
396	13	115	110	137	128

Impropers

3	1	116	117	118	115
6	1	120	121	125	118
7	1	34	35	36	33
8	2	14	15	31	13
9	1	116	115	117	118
10	1	77	94	75	78
12	1	81	79	82	83
19	1	115	116	127	110
22	1	75	77	73	76
24	1	94	99	77	95
37	1	125	127	120	126
42	1	23	28	7	24
51	1	52	49	53	54
58	1	47	48	49	45
61	1	72	71	73	99
63	1	2	28	1	3
65	1	44	39	45	54
72	1	54	55	44	52
81	1	11	13	9	12
82	1	34	33	35	36
83	1	116	118	115	117
84	1	49	47	50	52
85	2	1	71	2	30
90	1	107	108	109	105
91	1	7	5	8	23
93	2	1	2	30	71
97	1	31	14	32	33
100	1	115	127	110	116
105	1	120	125	118	121
110	1	67	38	68	69
131	1	47	49	45	48
135	1	78	89	77	79
138	1	77	75	78	94
139	1	50	51	102	49
149	1	99	100	72	94
151	1	125	126	127	120
157	2	71	101	1	72
167	2	1	30	71	2
169	1	102	104	50	103
175	1	99	72	94	100
176	1	94	95	99	77
182	1	45	44	46	47
186	1	28	2	23	29
189	1	83	84	87	81
190	1	38	36	39	67
201	1	44	45	54	39
203	2	84	86	83	85
205	1	54	44	52	55
208	1	18	19	8	16
211	1	118	119	120	116
215	1	13	16	11	14
217	1	5	7	3	6
221	1	140	141	142	109
231	1	142	104	140	143
233	1	109	107	110	140
235	1	78	77	79	89
237	1	89	87	90	78
240	1	109	140	107	110
244	1	47	45	48	49
245	1	94	77	95	99
249	1	18	16	19	8
250	1	33	69	31	34
263	1	11	9	12	13
266	1	31	32	33	14
267	1	54	52	55	44
272	1	13	14	16	11
276	1	72	99	71	73
277	1	127	115	125	128
285	1	3	4	5	2
290	1	127	125	128	115
291	1	118	120	116	119
298	1	89	90	78	87
310	1	99	94	100	72
315	1	79	78	80	81
319	1	142	140	143	104
321	2	71	1	72	101
326	1	8	7	9	18
330	1	16	18	13	17
332	1	87	83	88	89
334	2	84	83	85	86
339	1	50	102	49	51
344	1	125	120	126	127
347	1	50	49	51	102
349	1	83	87	81	84
351	1	2	1	3	28
357	1	9	8	10	11
368	1	23	7	24	28
370	1	75	73	76	77
372	1	36	38	34	37
377	1	49	52	47	50
392	1	115	110	116	127
393	1	140	142	109	141
394	1	52	53	54	49
396	1	140	109	141	142
405	2	71	72	101	1
411	1	45	47	44	46
413	1	102	103	104	50
414	1	109	110	140	107
417	1	73	74	75	72
421	1	78	79	89	77
423	1	67	68	69	38
427	1	23	24	28	7
430	1	38	67	36	39
432	1	79	81	78	80
437	1	87	88	89	83
438	1	5	6	7	3
442	3	121	122	123	120
445	1	81	82	83	79
452	1	34	36	33	35
454	1	5	3	6	7
456	2	14	13	15	31
460	1	16	13	17	18
461	1	18	8	16	19
466	1	28	29	2	23
467	1	104	102	105	142
468	1	36	37	38	34
470	1	81	83	79	82
471	1	105	104	106	107
475	1	102	50	103	104
479	1	107	105	108	109
482	1	79	80	81	78
485	1	67	69	38	68
495	1	104	142	102	105
497	1	8	18	7	9
502	1	127	128	115	125
506	2	84	85	86	83
507	1	83	81	84	87
511	1	44	54	39	45
522	1	105	106	107	104
526	1	3	5	2	4
530	1	73	75	72	74
541	1	28	23	29	2
542	1	120	118	121	125
545	1	11	12	13	9
547	1	33	34	69	31
559	1	89	78	87	90
561	1	87	89	83	88
570	1	69	33	67	70
575	2	14	31	13	15
578	1	9	11	8	10
581	1	77	78	94	75
592	1	107	109	105	108
596	1	73	72	74	75
598	1	16	17	18	13
600	1	31	33	14	32
601	1	69	70	33	67
606	1	52	54	49	53
610	3	121	123	120	122
612	1	142	143	104	140
613	1	72	73	99	71
616	1	7	8	23	5
619	1	33	31	34	69
627	1	104	105	142	102
633	1	118	116	119	120
636	1	69	67	70	33
648	1	9	10	11	8
656	1	45	46	47	44
658	1	75	76	77	73
670	1	49	50	52	47
695	1	7	23	5	8
698	1	105	107	104	106
699	1	8	9	18	7
704	3	121	120	122	123
708	1	38	39	67	36
709	1	13	11	14	16
713	1	3	2	4	5
714	1	2	3	28	1
719	1	36	34	37	38
