Title

96 atoms
103 bonds
190 angles
327 dihedrals
78 impropers

9 atom types
13 bond types
7 angle types
12 dihedral types
2 improper types
-4.860000134 95.13999987 xlo xhi
-3.539000034 96.46099997 ylo yhi
-5.835000038 94.16499996 zlo zhi
0.0 0.0 0.0 xy xz yz

Masses

1	15.99943
2	12.01078
3	1.007947
4	12.01078
5	1.007947
6	15.99943
7	15.99943
8	1.007947
9	35.4532


Pair Coeffs

1	0.16846514	3.0251065
2	0.086879315	3.4806469
3	0.015611343	2.5725815
4	0.10884061	3.3795318
5	0.015779483	2.6445434
6	0.2102061	3.0398122
7	0.20947353	2.99716
8	1.2326e-05	0.53453923
9	0.2656001	3.3075278

Bond Coeffs

1 harmonic	425.69104206635	1.362945806494
2 harmonic	300.03137914615	1.451203938761
3 harmonic	360.7852444772	1.387193227181
4 harmonic	397.2545789619	1.085358495916
5 harmonic	289.73813263395	1.498646816465
6 harmonic	264.62148576755	1.52190126495
7 harmonic	301.15400723785	1.345741232799
8 harmonic	370.04670688625	1.093899492634
9 harmonic	582.698766451	1.225198386222
10 harmonic	279.1350963404	1.454628925034
11 harmonic	385.7604595587	1.369745182308
12 harmonic	543.5267831885	0.9716763312559
13 harmonic	218.0227703685	1.746066037062


Angle Coeffs

1 harmonic	57.8982893754	126.8062420451
2 harmonic	65.09061609600001	110.3538806181
3 harmonic	34.066775159195	129.1835929926
4 harmonic	14.32262199324	138.3184368373
5 harmonic	53.20531626545	116.5475862634
6 harmonic	201.41175231035	127.4691416191
7 harmonic	48.776492647595	115.6030999533


Dihedral Coeffs

1 fourier 1	3.661930099076	2	180
2 fourier 1	1.532232714475	2	180
3 fourier 1	0.457973137376	1	0
4 fourier 1	0.02664938770063	3	0
5 fourier 1	0.1155372516788	3	0
6 fourier 1	0.09223874044423	3	0
7 fourier 1	0.3159935921949	2	180
8 fourier 1	0.3247796806857	1	180
9 fourier 1	2.779853741805	2	180
10 fourier 1	0.9974165607242	2	180
11 fourier 1	0.1040663847541	3	0
12 fourier 1	0.8283030590042	2	180


Improper Coeffs

1 0.3666666666666667	-1	2
2 3.5	-1	2


Atoms

1	1	1	-0.054409001	2.1949999	3.237	-2.8929999
2	1	2	0.227448	2.24	2.1010001	-2.0899999
3	1	2	-0.357133	3.3900001	1.41	-1.973
4	1	3	0.20014501	4.2779999	1.737	-2.5
5	1	2	-0.022936	3.4519999	0.199	-1.12
6	1	3	0.19457901	4.3829999	-0.34200001	-1.012
7	1	2	-0.23407	2.339	-0.20299999	-0.48699999
8	1	2	-0.058975998	1.105	0.54299998	-0.60500002
9	1	2	-0.240145	1.028	1.65	-1.359
10	1	3	0.194024	0.103	2.2079999	-1.429
11	1	4	0.110443	0.032000002	-0.063000001	0.23899999
12	1	2	-0.063528001	-1.251	-0.252	-0.50199997
13	1	2	-0.210271	-1.432	-0.84600002	-1.691
14	1	3	0.19274899	-0.58899999	-1.24	-2.2460001
15	1	2	0.392068	-2.812	-0.963	-2.2290001
16	1	1	-0.45482299	-3.036	-1.562	-3.4649999
17	1	2	-0.296556	-3.852	-0.491	-1.516
18	1	3	0.201839	-4.8600001	-0.57800001	-1.9
19	1	2	-0.026254	-3.6259999	0.148	-0.197
20	1	3	0.19457901	-4.4660001	0.50700003	0.382
21	1	2	-0.23407	-2.369	0.26300001	0.259
22	1	4	-0.030873001	-1.9170001	0.838	1.566
23	1	4	-0.139019	-2.3559999	-0.079999998	2.721
24	1	5	0.078598	-3.464	-0.132	2.78
25	1	5	0.078598	-1.965	-1.11	2.575
26	1	5	0.078598	-1.972	0.308	3.6900001
27	1	4	-0.139019	-2.471	2.26	1.772
28	1	5	0.078598	-2.2179999	2.908	0.90399998
29	1	5	0.078598	-3.576	2.243	1.885
30	1	5	0.078598	-2.0350001	2.7119999	2.688
31	1	4	-0.161973	-0.361	0.85600001	1.436
32	1	5	0.110972	-0.012	1.895	1.24
33	1	5	0.110972	0.138	0.551	2.382
34	1	4	-0.161973	0.64399999	-1.42	0.704
35	1	5	0.110972	0.192	-2.2539999	0.12
36	1	5	0.110972	0.41100001	-1.6440001	1.768
37	1	4	-0.030873001	2.1830001	-1.367	0.442
38	1	4	-0.139019	2.948	-1.099	1.751
39	1	5	0.078598	4.0380001	-1.011	1.556
40	1	5	0.078598	2.5999999	-0.154	2.223
41	1	5	0.078598	2.7869999	-1.931	2.47
42	1	4	-0.139019	2.678	-2.6719999	-0.20900001
43	1	5	0.078598	2.1800001	-2.832	-1.1900001
44	1	5	0.078598	3.776	-2.641	-0.375
45	1	5	0.078598	2.4489999	-3.539	0.44800001
46	1	2	0.62335998	-2.2420001	-1.938	-4.0380001
47	1	6	-0.53470099	-1.659	-2.948	-3.6830001
48	1	1	-0.054409001	1.341	3.773	-2.9949999
49	1	2	0.227448	1.108	4.9089999	-2.2249999
50	1	2	-0.357133	-0.037	5.5999999	-2.382
51	1	3	0.20014501	-0.77600002	5.2729998	-3.102
52	1	2	-0.022936	-0.29699999	6.8109999	-1.567
53	1	3	0.19457901	-1.227	7.3520002	-1.681
54	1	2	-0.23407	0.63499999	7.2129998	-0.69
55	1	2	-0.058975998	1.863	6.467	-0.514
56	1	2	-0.240145	2.115	5.3610001	-1.23
57	1	3	0.194024	3.03	4.802	-1.08
58	1	4	0.110443	2.707	7.073	0.55800003
59	1	2	-0.013702	4.1290002	7.2620001	0.139
60	1	2	-0.404071	4.5840001	7.8559999	-0.97399998
61	1	3	0.199672	3.8959999	8.25	-1.711
62	1	2	0.35016799	6.052	7.973	-1.1720001
63	1	7	-0.65965199	6.5609999	8.5719995	-2.3210001
64	1	8	0.42391601	5.9450002	8.9350004	-3.039
65	1	2	-0.43064001	6.895	7.5009999	-0.235
66	1	3	0.205424	7.9650002	7.5879998	-0.37099999
67	1	2	0.044915002	6.3649998	6.8629999	0.995
68	1	3	0.19457901	7.0450001	6.5029998	1.755
69	1	2	-0.23407	5.0359998	6.7470002	1.142
70	1	4	-0.030873001	4.289	6.1719999	2.306
71	1	4	-0.139019	4.4439998	7.0900002	3.5320001
72	1	5	0.078598	5.5079999	7.1420002	3.8499999
73	1	5	0.078598	4.098	8.1199999	3.2980001
74	1	5	0.078598	3.8440001	6.7020001	4.3829999
75	1	4	-0.139019	4.7789998	4.75	2.6359999
76	1	5	0.078598	4.7379999	4.1020002	1.733
77	1	5	0.078598	5.8270001	4.7670002	3.006
78	1	5	0.078598	4.1399999	4.2979999	3.424
79	1	4	-0.161973	2.8069999	6.1539998	1.814
80	1	5	0.110972	2.5150001	5.1149998	1.5420001
81	1	5	0.110972	2.0999999	6.4590001	2.6159999
82	1	4	-0.161973	2.003	8.4300003	0.866
83	1	5	0.110972	2.579	9.2639999	0.405
84	1	5	0.110972	1.979	8.6540003	1.955
85	1	4	-0.030873001	0.56900001	8.3769999	0.25
86	1	4	-0.139019	-0.48199999	8.1090002	1.342
87	1	5	0.078598	-1.4960001	8.0209999	0.89600003
88	1	5	0.078598	-0.255	7.165	1.882
89	1	5	0.078598	-0.49599999	8.941	2.079
90	1	4	-0.139019	0.241	9.6820002	-0.5
91	1	5	0.078598	0.95499998	9.8430004	-1.336
92	1	5	0.078598	-0.787	9.651	-0.91900003
93	1	5	0.078598	0.308	10.549	0.192
94	1	2	0.462715	-1.9400001	-1.428	-4.9460001
95	1	6	-0.62423402	-2.5769999	-0.47	-5.349
96	1	9	-0.107936	-0.53299999	-1.9809999	-5.835

Bonds

1	1	1	2
2	2	1	48
3	3	2	3
4	3	2	9
5	4	3	4
6	3	3	5
7	4	5	6
8	3	5	7
9	3	7	8
10	5	7	37
11	3	8	9
12	5	8	11
13	4	9	10
14	5	11	12
15	6	11	34
16	6	11	31
17	3	12	13
18	3	12	21
19	4	13	14
20	3	13	15
21	1	15	16
22	3	15	17
23	7	16	46
24	4	17	18
25	3	17	19
26	4	19	20
27	3	19	21
28	5	21	22
29	6	22	23
30	6	22	27
31	6	22	31
32	8	23	24
33	8	23	25
34	8	23	26
35	8	27	28
36	8	27	29
37	8	27	30
38	8	31	32
39	8	31	33
40	8	34	35
41	8	34	36
42	6	34	37
43	6	37	38
44	6	37	42
45	8	38	39
46	8	38	40
47	8	38	41
48	8	42	43
49	8	42	44
50	8	42	45
51	9	46	47
52	10	46	94
53	1	48	49
54	3	49	50
55	3	49	56
56	4	50	51
57	3	50	52
58	4	52	53
59	3	52	54
60	3	54	55
61	5	54	85
62	3	55	56
63	5	55	58
64	4	56	57
65	5	58	59
66	6	58	82
67	6	58	79
68	3	59	60
69	3	59	69
70	4	60	61
71	3	60	62
72	11	62	63
73	3	62	65
74	12	63	64
75	4	65	66
76	3	65	67
77	4	67	68
78	3	67	69
79	5	69	70
80	6	70	71
81	6	70	75
82	6	70	79
83	8	71	72
84	8	71	73
85	8	71	74
86	8	75	76
87	8	75	77
88	8	75	78
89	8	79	80
90	8	79	81
91	8	82	83
92	8	82	84
93	6	82	85
94	6	85	86
95	6	85	90
96	8	86	87
97	8	86	88
98	8	86	89
99	8	90	91
100	8	90	92
101	8	90	93
102	9	94	95
103	13	94	96

Angles

1	3	2	3	4
2	5	8	11	12
3	4	5	7	37
4	1	56	55	58
5	1	60	62	63
6	7	43	42	45
7	1	13	15	17
8	7	73	71	74
9	5	59	58	79
10	1	59	69	70
11	5	11	34	37
12	5	37	38	39
13	1	7	8	9
14	5	71	70	75
15	5	85	90	92
16	5	70	75	77
17	7	24	23	25
18	5	70	71	72
19	4	19	21	22
20	1	50	52	54
21	1	63	62	65
22	5	22	27	28
23	7	72	71	73
24	1	15	17	19
25	5	79	58	82
26	4	67	69	70
27	1	50	49	56
28	1	52	54	55
29	7	76	75	77
30	5	75	70	79
31	1	58	59	60
32	3	61	60	62
33	7	77	75	78
34	3	17	19	20
35	3	49	56	57
36	1	3	2	9
37	1	1	2	3
38	5	12	11	34
39	5	58	79	80
40	1	16	46	94
41	7	24	23	26
42	6	16	46	47
43	1	48	49	56
44	1	54	55	58
45	5	11	31	22
46	5	27	22	31
47	7	29	27	30
48	3	59	60	61
49	1	60	59	69
50	3	6	5	7
51	7	32	31	33
52	7	35	34	36
53	3	62	65	66
54	5	12	11	31
55	5	85	86	87
56	1	59	60	62
57	1	12	21	22
58	7	39	38	41
59	1	7	8	11
60	3	49	50	51
61	1	2	3	5
62	1	11	12	13
63	1	46	94	96
64	7	43	42	44
65	1	8	7	37
66	5	31	11	34
67	5	37	38	40
68	1	62	65	67
69	3	65	67	68
70	3	53	52	54
71	5	85	90	93
72	5	70	75	78
73	5	85	86	88
74	5	58	82	83
75	5	8	11	34
76	5	70	71	73
77	7	40	38	41
78	3	3	5	6
79	5	22	27	29
80	7	72	71	74
81	7	25	23	26
82	1	59	69	67
83	5	22	23	24
84	7	76	75	78
85	5	21	22	27
86	5	55	58	82
87	1	60	62	65
88	1	17	19	21
89	1	2	9	8
90	1	12	21	19
91	1	11	12	21
92	5	37	38	41
93	3	66	65	67
94	5	58	79	81
95	1	48	49	50
96	5	21	22	23
97	7	28	27	29
98	5	58	82	84
99	1	47	46	94
100	1	16	15	17
101	1	3	5	7
102	5	22	27	30
103	5	86	85	90
104	5	11	34	35
105	7	80	79	81
106	7	83	82	84
107	2	15	16	46
108	5	70	79	80
109	3	68	67	69
110	3	4	3	5
111	7	87	86	88
112	5	8	11	31
113	5	69	70	71
114	7	88	86	89
115	5	37	42	45
116	1	58	59	69
117	5	54	85	90
118	7	28	27	30
119	5	22	31	32
120	5	7	37	38
121	3	18	17	19
122	1	13	15	16
123	5	35	34	37
124	1	49	56	55
125	5	55	58	59
126	5	11	34	36
127	7	91	90	92
128	5	21	22	31
129	5	70	79	81
130	3	8	9	10
131	4	52	54	85
132	5	54	85	86
133	7	87	86	89
134	5	7	37	34
135	3	50	52	53
136	1	49	50	52
137	2	1	48	49
138	3	20	19	21
139	5	82	85	90
140	3	15	17	18
141	7	44	42	45
142	1	13	12	21
143	5	22	31	33
144	1	54	55	56
145	5	69	70	79
146	7	92	90	93
147	5	54	85	82
148	3	14	13	15
149	3	55	56	57
150	5	71	70	79
151	1	65	67	69
152	5	82	85	86
153	7	91	90	93
154	2	2	1	48
155	5	85	86	89
156	5	58	79	70
157	5	70	71	74
158	5	69	70	75
159	5	34	37	42
160	5	22	23	25
161	1	46	94	95
162	5	11	31	32
163	5	37	42	44
164	2	62	63	64
165	5	7	37	42
166	5	84	82	85
167	3	2	9	10
168	1	9	8	11
169	1	95	94	96
170	5	59	58	82
171	5	34	37	38
172	5	37	42	43
173	3	12	13	14
174	5	55	58	79
175	5	58	82	85
176	5	23	22	31
177	1	55	54	85
178	5	22	23	26
179	5	83	82	85
180	1	5	7	8
181	5	11	31	33
182	3	51	50	52
183	5	85	90	91
184	5	70	75	76
185	5	38	37	42
186	5	23	22	27
187	7	39	38	40
188	5	36	34	37
189	1	12	13	15
190	1	1	2	9

Dihedrals

1	11	29	27	22	31
2	1	3	2	9	8
3	4	5	7	37	38
4	11	34	37	38	41
5	4	19	21	22	31
6	1	2	3	5	7
7	11	38	37	42	44
8	11	41	38	37	42
9	1	58	59	69	67
10	5	12	11	34	37
11	11	71	70	79	81
12	4	8	7	37	42
13	11	72	71	70	79
14	11	71	70	75	76
15	11	28	27	22	31
16	1	2	9	8	11
17	1	50	49	56	55
18	1	59	60	62	63
19	5	69	70	79	80
20	4	19	21	22	27
21	4	8	7	37	38
22	11	72	71	70	75
23	5	69	70	75	77
24	5	8	11	31	33
25	1	17	19	21	22
26	5	11	31	22	21
27	1	15	17	19	20
28	11	30	27	22	31
29	5	8	11	34	36
30	5	8	11	31	22
31	11	27	22	31	32
32	1	11	12	21	22
33	5	55	58	79	80
34	4	9	8	11	31
35	11	33	31	11	34
36	4	19	21	22	23
37	4	55	58	59	60
38	11	73	71	70	79
39	2	1	48	49	50
40	1	5	7	8	9
41	4	8	7	37	34
42	5	21	22	27	29
43	1	61	60	62	65
44	5	21	22	23	24
45	11	34	37	42	43
46	1	66	65	67	68
47	11	77	75	70	79
48	5	59	58	82	84
49	5	7	37	42	45
50	1	20	19	21	22
51	11	24	23	22	31
52	4	52	54	85	82
53	3	2	1	48	49
54	1	6	5	7	8
55	1	11	8	7	37
56	5	55	58	82	83
57	5	59	58	79	70
58	1	52	54	55	58
59	4	69	59	58	79
60	11	73	71	70	75
61	11	74	71	70	75
62	11	82	85	90	91
63	11	86	85	90	91
64	5	69	70	75	78
65	1	52	50	49	56
66	1	61	60	59	69
67	4	67	69	70	79
68	1	62	65	67	68
69	1	9	8	7	37
70	1	4	3	5	6
71	1	58	55	54	85
72	1	5	3	2	9
73	4	13	12	11	34
74	5	54	85	86	87
75	1	7	8	9	10
76	5	7	37	38	40
77	5	21	22	27	30
78	11	78	75	70	79
79	5	69	70	71	73
80	5	7	37	34	35
81	1	66	65	67	69
82	1	2	9	8	7
83	4	67	69	70	75
84	5	59	58	82	85
85	2	13	15	16	46
86	4	7	8	11	34
87	1	60	59	69	70
88	1	11	12	21	19
89	1	50	52	54	55
90	10	16	46	94	95
91	5	55	58	82	84
92	11	23	22	31	33
93	11	86	85	90	92
94	1	1	2	3	5
95	2	3	2	1	48
96	11	88	86	85	90
97	11	82	85	86	89
98	11	23	22	27	28
99	5	54	85	90	91
100	11	75	70	79	80
101	4	52	54	85	90
102	1	4	3	5	7
103	11	31	11	34	35
104	4	67	69	70	71
105	11	81	79	58	82
106	11	25	23	22	31
107	5	54	85	82	58
108	6	79	58	82	85
108	7	79	58	82	85
108	8	79	58	82	85
109	5	54	85	86	88
110	6	58	79	70	71
110	7	58	79	70	71
110	8	58	79	70	71
111	5	7	37	34	11
112	5	7	37	38	41
113	1	12	13	15	16
114	5	54	85	82	83
115	12	64	63	62	65
116	11	84	82	85	90
117	1	3	2	9	10
118	1	16	15	17	18
119	4	52	54	85	86
120	4	55	58	59	69
121	11	38	37	42	45
122	4	55	54	85	90
123	11	74	71	70	79
124	11	25	23	22	27
125	11	71	70	75	77
126	4	8	11	12	21
127	4	13	12	11	31
128	11	23	22	27	29
129	1	14	13	12	21
130	11	75	70	79	81
131	11	84	82	85	86
132	6	58	82	85	86
132	7	58	82	85	86
132	8	58	82	85	86
133	11	31	11	34	36
134	1	53	52	54	55
135	5	69	70	79	81
136	1	1	2	9	8
137	5	7	37	42	43
138	4	7	8	11	31
139	1	10	9	8	11
140	1	60	59	69	67
141	4	55	54	85	86
142	1	5	7	8	11
143	11	39	38	37	42
144	4	21	12	11	34
145	1	51	50	52	53
146	2	9	2	1	48
147	1	15	17	19	21
148	10	47	46	94	96
149	5	8	11	34	37
150	12	60	62	63	64
151	11	27	22	31	33
152	5	55	58	79	81
153	1	62	60	59	69
154	4	55	54	85	82
155	5	55	58	79	70
156	11	71	70	75	78
157	1	15	13	12	21
158	1	50	49	56	57
159	1	59	60	62	65
160	1	65	67	69	70
161	11	79	58	82	83
162	4	8	11	12	13
163	6	11	31	22	27
163	7	11	31	22	27
163	8	11	31	22	27
164	5	59	58	79	80
165	4	9	8	11	12
166	5	21	22	23	25
167	11	34	37	42	44
168	1	54	55	56	57
169	5	7	37	42	44
170	5	12	11	31	32
171	11	34	37	38	39
172	11	80	79	58	82
173	1	14	13	15	16
174	6	58	79	70	75
174	7	58	79	70	75
174	8	58	79	70	75
175	5	12	11	34	35
176	2	1	48	49	56
177	2	17	15	16	46
178	11	82	85	90	92
179	11	87	86	85	90
180	4	60	59	58	82
181	11	82	85	86	87
182	1	51	50	52	54
183	6	11	31	22	23
183	7	11	31	22	23
183	8	11	31	22	23
184	1	62	65	67	69
185	11	89	86	85	90
186	11	26	23	22	31
187	1	13	15	17	18
188	5	21	22	31	32
189	5	69	70	71	74
190	5	7	37	34	36
191	5	21	22	23	26
192	6	58	82	85	90
192	7	58	82	85	90
192	8	58	82	85	90
193	1	12	21	19	20
194	1	56	55	54	85
195	5	12	11	31	33
196	1	60	62	65	66
197	11	38	37	42	43
198	5	55	58	82	85
199	11	26	23	22	27
200	1	68	67	69	70
201	11	71	70	79	80
202	11	86	85	90	93
203	1	11	12	13	14
204	1	18	17	19	20
205	9	15	16	46	94
206	5	54	85	90	92
207	1	61	60	62	63
208	1	48	49	50	51
209	4	56	55	58	82
210	1	48	49	56	57
211	1	13	12	21	22
212	1	52	54	55	56
213	5	54	85	86	89
214	1	13	15	17	19
215	1	12	13	15	17
216	5	54	85	82	84
217	5	69	70	75	76
218	5	8	11	31	32
219	4	59	69	70	79
220	1	16	15	17	19
221	11	40	38	37	42
222	5	8	11	34	35
223	1	60	62	65	67
224	1	63	62	65	66
225	1	53	52	54	85
226	4	69	59	58	82
227	1	11	12	13	15
228	11	83	82	85	90
229	11	23	22	27	30
230	1	18	17	19	21
231	5	21	22	27	28
232	1	49	56	55	58
233	5	54	85	90	93
234	1	59	69	67	68
235	4	59	69	70	75
236	4	54	55	58	82
237	1	1	2	9	10
238	4	12	21	22	31
239	1	12	21	19	17
240	6	31	11	34	37
240	7	31	11	34	37
240	8	31	11	34	37
241	1	48	49	50	52
242	4	5	7	37	34
243	5	59	58	82	83
244	10	16	46	94	96
245	11	83	82	85	86
246	11	76	75	70	79
247	1	58	59	60	61
248	4	7	8	11	12
249	1	49	56	55	54
250	1	63	62	65	67
251	1	58	59	69	70
252	4	59	69	70	71
253	4	12	21	22	27
254	4	56	55	58	79
255	11	32	31	11	34
256	1	50	52	54	85
257	1	13	12	21	19
258	1	51	50	49	56
259	11	36	34	37	42
260	1	49	50	52	53
261	5	7	37	38	39
262	1	57	56	55	58
263	4	21	12	11	31
264	5	58	79	70	69
265	5	59	58	79	81
266	11	34	37	42	45
267	4	56	55	58	59
268	5	69	70	71	72
269	1	4	3	2	9
270	11	34	37	38	40
271	11	35	34	37	42
272	1	2	3	5	6
273	1	3	5	7	8
274	4	12	21	22	23
275	1	14	13	15	17
276	5	12	11	34	36
277	5	12	11	31	22
278	11	23	22	31	32
279	1	1	2	3	4
280	11	82	85	90	93
281	6	11	34	37	42
281	7	11	34	37	42
281	8	11	34	37	42
282	11	82	85	86	88
283	1	58	59	60	62
284	11	36	34	37	38
285	10	47	46	94	95
286	4	5	7	37	42
287	1	59	69	67	65
288	4	54	55	58	79
289	6	70	79	58	82
289	7	70	79	58	82
289	8	70	79	58	82
290	2	15	16	46	47
291	6	22	31	11	34
291	7	22	31	11	34
291	8	22	31	11	34
292	1	6	5	7	37
293	4	9	8	11	34
294	1	3	5	7	37
295	11	24	23	22	27
296	11	35	34	37	38
297	1	48	49	56	55
298	11	79	58	82	84
299	5	21	22	31	33
300	1	49	50	52	54
301	4	54	55	58	59
302	6	11	34	37	38
302	7	11	34	37	38
302	8	11	34	37	38
303	4	60	59	58	79

Impropers

8	1	62	63	65	60
14	1	19	20	21	17
16	1	56	55	57	49
31	1	69	67	70	59
37	1	49	50	56	48
40	1	69	70	59	67
42	1	8	7	9	11
43	1	2	3	9	1
49	1	65	62	66	67
57	1	2	1	3	9
73	1	62	60	63	65
77	1	19	21	17	20
87	1	52	54	50	53
100	1	52	50	53	54
114	1	65	67	62	66
131	1	55	54	56	58
132	1	54	55	85	52
133	1	7	8	37	5
134	1	54	85	52	55
148	1	12	13	21	11
149	1	49	48	50	56
163	1	21	12	19	22
171	2	46	47	94	16
176	1	59	60	69	58
190	1	5	3	6	7
192	1	59	69	58	60
202	1	9	8	10	2
203	1	12	21	11	13
210	1	21	19	22	12
212	1	56	57	49	55
220	1	8	11	7	9
221	1	7	37	5	8
222	1	94	95	96	46
238	1	60	62	59	61
246	1	56	49	55	57
252	1	9	2	8	10
255	1	13	12	14	15
256	1	67	69	65	68
262	1	15	13	16	17
271	1	21	22	12	19
274	1	50	52	49	51
279	1	54	52	55	85
295	1	15	16	17	13
306	1	52	53	54	50
309	1	60	59	61	62
324	1	5	7	3	6
325	1	69	59	67	70
327	1	94	46	95	96
336	1	8	9	11	7
349	1	15	17	13	16
356	1	19	17	20	21
358	1	17	15	18	19
361	1	9	10	2	8
374	1	67	68	69	65
390	1	60	61	62	59
395	1	3	5	2	4
398	1	94	96	46	95
407	1	7	5	8	37
410	1	3	4	5	2
424	1	2	9	1	3
432	1	55	58	54	56
435	2	46	94	16	47
443	1	50	49	51	52
488	1	17	18	19	15
500	1	12	11	13	21
503	1	62	65	60	63
518	1	50	51	52	49
523	1	55	56	58	54
531	1	13	14	15	12
533	1	49	56	48	50
539	1	67	65	68	69
541	1	5	6	7	3
543	1	59	58	60	69
547	1	13	15	12	14
550	1	65	66	67	62
565	1	17	19	15	18
573	1	3	2	4	5
582	2	46	16	47	94
