Title

88 atoms
91 bonds
156 angles
223 dihedrals
78 impropers

11 atom types
15 bond types
7 angle types
14 dihedral types
2 improper types
-7.046000004 92.954 xlo xhi
-3.10800004 96.89199996 ylo yhi
-8.604000092 91.39599991 zlo zhi
0.0 0.0 0.0 xy xz yz

Masses

1	15.99943
2	12.01078
3	1.007947
4	12.01078
5	1.007947
6	12.01078
7	14.00672
8	15.99943
9	15.99943
10	1.007947
11	35.4532


Pair Coeffs

1	0.16846514	3.0251065
2	0.086879315	3.4806469
3	0.015611343	2.5725815
4	0.10884061	3.3795318
5	0.015779483	2.6445434
6	0.21	3.3996695
7	0.16769152	3.206876
8	0.2102061	3.0398122
9	0.20947353	2.99716
10	1.2326e-05	0.53453923
11	0.2656001	3.3075278

Bond Coeffs

1 harmonic	425.69104206635	1.362945806494
2 harmonic	300.03137914615	1.451203938761
3 harmonic	360.7852444772	1.387193227181
4 harmonic	397.2545789619	1.085358495916
5 harmonic	289.73813263395	1.498646816465
6 harmonic	264.62148576755	1.52190126495
7 harmonic	301.15400723785	1.345741232799
8 harmonic	370.04670688625	1.093899492634
9 harmonic	395.4694036448	1.466849154707
10 harmonic	811.0999739605001	1.165766525576
11 harmonic	582.698766451	1.225198386222
12 harmonic	279.1350963404	1.454628925034
13 harmonic	385.7604595587	1.369745182308
14 harmonic	543.5267831885	0.9716763312559
15 harmonic	218.0227703685	1.746066037062


Angle Coeffs

1 harmonic	57.8982893754	126.8062420451
2 harmonic	65.09061609600001	110.3538806181
3 harmonic	34.066775159195	129.1835929926
4 harmonic	53.20531626545	116.5475862634
5 harmonic	201.41175231035	127.4691416191
6 harmonic	48.776492647595	115.6030999533
7 harmonic	33.56981613361	180


Dihedral Coeffs

1 fourier 1	3.661930099076	2	180
2 fourier 1	1.532232714475	2	180
3 fourier 1	0.457973137376	1	0
4 fourier 1	0.02664938770063	3	0
5 fourier 1	0.1155372516788	3	0
6 fourier 1	0.1040663847541	3	0
7 fourier 1	2.779853741805	2	180
8 fourier 1	0.9974165607242	2	180
9 fourier 1	0.09223874044423	3	0
10 fourier 1	0.3159935921949	2	180
11 fourier 1	0.3247796806857	1	180
12 fourier 1	0	1	0
13 fourier 1	0.1911926717192	3	0
14 fourier 1	0.8283030590042	2	180


Improper Coeffs

1 0.3666666666666667	-1	2
2 3.5	-1	2


Atoms

1	1	1	-9.5000003e-05	5.085	-0.161	1.75
2	1	2	0.091829002	3.8469999	-0.233	1.11
3	1	2	-0.24988399	2.786	-0.64700001	1.807
4	1	3	0.23047	2.895	-0.92799997	2.8469999
5	1	2	-0.150501	1.4579999	-0.73000002	1.174
6	1	3	0.215351	0.64600003	-1.133	1.766
7	1	2	-0.226237	1.2589999	-0.324	-0.1
8	1	4	0.023800001	-0.132	-0.505	-0.76099998
9	1	2	-0.226237	-1.2920001	-0.184	0.21600001
10	1	2	-0.15118299	-1.191	0.833	1.101
11	1	3	0.215351	-0.289	1.426	1.1720001
12	1	2	-0.21777301	-2.3069999	1.1799999	1.998
13	1	3	0.230358	-2.1789999	1.98	2.717
14	1	2	0.312356	-3.4679999	0.523	1.927
15	1	1	-0.414906	-4.4970002	0.88200003	2.7980001
16	1	2	-0.091251999	-3.6370001	-0.56400001	0.92299998
17	1	4	-0.13195901	-4.9499998	-1.288	0.80299997
18	1	5	0.099179998	-5.1880002	-1.791	1.763
19	1	5	0.099179998	-5.7540002	-0.56199998	0.55900002
20	1	5	0.099179998	-4.9310002	-2.0610001	0.0049999999
21	1	2	-0.265562	-2.609	-0.884	0.114
22	1	3	0.215536	-2.7539999	-1.655	-0.62699997
23	1	4	-0.131708	-0.168	-1.998	-1.182
24	1	5	0.088122003	-0.23100001	-2.658	-0.28999999
25	1	5	0.088122003	0.75099999	-2.2679999	-1.748
26	1	5	0.088122003	-1.021	-2.2290001	-1.854
27	1	4	-0.093154997	-0.34799999	0.34900001	-2.062
28	1	4	-0.122333	-0.52700001	1.873	-1.8940001
29	1	6	0.189991	0.65200001	2.5480001	-1.342
30	1	7	-0.288863	1.576	3.0910001	-0.90700001
31	1	5	0.121209	-0.727	2.312	-2.895
32	1	5	0.121209	-1.411	2.102	-1.265
33	1	5	0.113624	-1.289	-0.003	-2.5420001
34	1	5	0.113624	0.43099999	0.142	-2.822
35	1	2	-0.26815099	2.467	0.064000003	-0.89200002
36	1	3	0.215536	2.3770001	0.301	-1.9400001
37	1	2	-0.079517998	3.687	0.12800001	-0.32499999
38	1	4	-0.13508099	4.881	0.54500002	-1.14
39	1	5	0.099179998	4.6129999	0.764	-2.1960001
40	1	5	0.099179998	5.6360002	-0.26899999	-1.1390001
41	1	5	0.099179998	5.3280001	1.462	-0.70200002
42	1	2	0.63001001	-5.4310002	0.40700001	2.7939999
43	1	8	-0.483188	-6.4530001	1.071	2.799
44	1	1	-9.5000003e-05	5.9260001	0.14399999	1.277
45	1	2	0.091829002	6.0209999	0.21600001	-0.113
46	1	2	-0.24988399	7.1680002	0.63	-0.65700001
47	1	3	0.23047	8	0.912	-0.024
48	1	2	-0.150501	7.3169999	0.71399999	-2.1210001
49	1	3	0.215351	8.2440004	1.117	-2.507
50	1	2	-0.226237	6.3309999	0.30700001	-2.9530001
51	1	4	0.023800001	6.4889998	0.48800001	-4.4850001
52	1	2	-0.226237	7.9260001	0.167	-4.9689999
53	1	2	-0.110063	8.6309996	-0.85000002	-4.4229999
54	1	3	0.215351	8.2220001	-1.443	-3.615
55	1	2	-0.38248599	9.9770002	-1.197	-4.9109998
56	1	3	0.235999	10.525	-1.9960001	-4.427
57	1	2	0.292234	10.519	-0.53899997	-5.9390001
58	1	9	-0.63487601	11.798	-0.89899999	-6.3660002
59	1	10	0.44018701	12.263	-0.44	-7.1389999
60	1	2	-0.26365301	9.7489996	0.54699999	-6.605
61	1	4	-0.117906	10.328	1.271	-7.79
62	1	5	0.099179998	11.272	1.774	-7.494
63	1	5	0.099179998	10.537	0.54500002	-8.6040001
64	1	5	0.099179998	9.6359997	2.0439999	-8.1879997
65	1	2	-0.227743	8.5240002	0.86699998	-6.1469998
66	1	3	0.215536	7.9650002	1.638	-6.6560001
67	1	4	-0.131708	6.1479998	1.9809999	-4.7350001
68	1	5	0.088122003	6.9429998	2.641	-4.3249998
69	1	5	0.088122003	5.1869998	2.2509999	-4.243
70	1	5	0.088122003	6.0170002	2.2119999	-5.8119998
71	1	4	-0.093154997	5.4899998	-0.36500001	-5.3449998
72	1	4	-0.122333	5.7259998	-1.89	-5.4109998
73	1	6	0.189991	5.585	-2.5650001	-4.1170001
74	1	7	-0.288863	5.4770002	-3.108	-3.1010001
75	1	5	0.121209	4.9749999	-2.329	-6.1020002
76	1	5	0.121209	6.7220001	-2.119	-5.8400002
77	1	5	0.113624	5.5689998	-0.014	-6.3990002
78	1	5	0.113624	4.4349999	-0.15899999	-5.0739999
79	1	2	-0.26815099	5.027	-0.081	-2.332
80	1	3	0.215536	4.178	-0.31799999	-2.9530001
81	1	2	-0.079517998	4.8779998	-0.145	-0.995
82	1	4	-0.13508099	3.562	-0.56199998	-0.398
83	1	5	0.099179998	2.799	-0.78100002	-1.175
84	1	5	0.099179998	3.171	0.252	0.248
85	1	5	0.099179998	3.704	-1.479	0.212
86	1	2	0.469208	-5.4879999	-0.676	2.7850001
87	1	8	-0.553882	-4.4699998	-1.34	2.691
88	1	11	-0.074340999	-7.046	-1.473	2.9070001

Bonds

1	1	1	2
2	2	1	44
3	3	2	3
4	3	2	37
5	4	3	4
6	3	3	5
7	4	5	6
8	3	5	7
9	5	7	8
10	3	7	35
11	5	8	9
12	6	8	23
13	6	8	27
14	3	9	10
15	3	9	21
16	4	10	11
17	3	10	12
18	4	12	13
19	3	12	14
20	1	14	15
21	3	14	16
22	7	15	42
23	5	16	17
24	3	16	21
25	8	17	18
26	8	17	19
27	8	17	20
28	4	21	22
29	8	23	24
30	8	23	25
31	8	23	26
32	6	27	28
33	8	27	33
34	8	27	34
35	9	28	29
36	8	28	31
37	8	28	32
38	10	29	30
39	4	35	36
40	3	35	37
41	5	37	38
42	8	38	39
43	8	38	40
44	8	38	41
45	11	42	43
46	12	42	86
47	1	44	45
48	3	45	46
49	3	45	81
50	4	46	47
51	3	46	48
52	4	48	49
53	3	48	50
54	5	50	51
55	3	50	79
56	5	51	52
57	6	51	67
58	6	51	71
59	3	52	53
60	3	52	65
61	4	53	54
62	3	53	55
63	4	55	56
64	3	55	57
65	13	57	58
66	3	57	60
67	14	58	59
68	5	60	61
69	3	60	65
70	8	61	62
71	8	61	63
72	8	61	64
73	4	65	66
74	8	67	68
75	8	67	69
76	8	67	70
77	6	71	72
78	8	71	77
79	8	71	78
80	9	72	73
81	8	72	75
82	8	72	76
83	10	73	74
84	4	79	80
85	3	79	81
86	5	81	82
87	8	82	83
88	8	82	84
89	8	82	85
90	11	86	87
91	15	86	88

Angles

1	4	8	27	33
2	4	7	8	9
3	4	51	67	70
4	4	73	72	76
5	4	52	51	67
6	4	23	8	27
7	1	9	21	16
8	6	25	23	26
9	3	16	21	22
10	1	52	53	55
11	3	7	35	36
12	3	47	46	48
13	6	39	38	40
14	1	51	52	53
15	7	28	29	30
16	4	71	72	76
17	1	58	57	60
18	4	28	27	34
19	4	9	8	27
20	6	24	23	25
21	4	52	51	71
22	1	53	55	57
23	4	7	8	27
24	4	8	27	34
25	1	55	57	58
26	1	3	5	7
27	3	13	12	14
28	1	10	12	14
29	1	12	14	16
30	3	9	21	22
31	6	19	17	20
32	2	57	58	59
33	3	80	79	81
34	3	60	65	66
35	1	46	48	50
36	3	11	10	12
37	4	50	51	67
38	6	62	61	63
39	1	8	9	10
40	6	18	17	20
41	6	83	82	85
42	3	9	10	11
43	1	1	2	3
44	1	2	37	38
45	4	16	17	20
46	4	7	8	23
47	4	50	51	71
48	6	24	23	26
49	1	46	45	81
50	3	45	46	47
51	6	62	61	64
52	1	5	7	35
53	4	28	27	33
54	1	79	81	82
55	4	16	17	18
56	4	51	71	72
57	1	53	52	65
58	1	51	52	65
59	3	4	3	5
60	4	51	67	69
61	4	81	82	85
62	4	60	61	63
63	3	36	35	37
64	1	43	42	86
65	4	27	28	32
66	3	53	55	56
67	3	2	3	4
68	1	52	65	60
69	1	45	81	79
70	4	60	61	64
71	1	5	7	8
72	2	14	15	42
73	1	10	9	21
74	7	72	73	74
75	1	50	79	81
76	6	68	67	70
77	4	29	28	32
78	1	35	37	38
79	1	2	37	35
80	4	60	61	62
81	4	9	8	23
82	6	33	27	34
83	4	8	27	28
84	4	72	71	78
85	1	1	2	37
86	1	9	10	12
87	4	27	28	31
88	4	27	28	29
89	4	37	38	40
90	4	51	71	78
91	3	52	53	54
92	1	12	14	15
93	6	77	71	78
94	4	8	23	25
95	4	37	38	41
96	3	3	5	6
97	6	83	82	84
98	3	46	48	49
99	1	8	9	21
100	4	81	82	83
101	6	18	17	19
102	4	50	51	52
103	1	57	60	65
104	1	14	16	17
105	4	16	17	19
106	6	40	38	41
107	6	69	67	70
108	3	56	55	57
109	5	15	42	43
110	1	61	60	65
111	1	15	14	16
112	4	37	38	39
113	2	1	44	45
114	4	67	51	71
115	4	71	72	73
116	4	73	72	75
117	1	55	57	60
118	1	42	86	87
119	4	81	82	84
120	6	31	28	32
121	4	8	23	26
122	6	68	67	69
123	1	51	50	79
124	4	8	23	24
125	3	52	65	66
126	1	57	60	61
127	4	71	72	75
128	6	75	72	76
129	2	2	1	44
130	1	45	81	82
131	1	8	7	35
132	1	45	46	48
133	3	49	48	50
134	6	84	82	85
135	3	6	5	7
136	3	50	79	80
137	1	48	50	51
138	1	44	45	46
139	1	3	2	37
140	1	14	16	21
141	3	10	12	13
142	6	39	38	41
143	4	29	28	31
144	1	2	3	5
145	6	63	61	64
146	4	72	71	77
147	1	15	42	86
148	1	17	16	21
149	1	48	50	79
150	4	51	67	68
151	1	7	35	37
152	4	51	71	77
153	1	87	86	88
154	1	42	86	88
155	3	54	53	55
156	1	44	45	81

Dihedrals

1	5	7	8	27	33
2	1	3	2	37	38
3	6	26	23	8	27
4	1	55	53	52	65
5	4	10	9	8	27
6	1	45	81	79	50
7	1	53	55	57	60
8	1	47	46	48	50
9	1	54	53	55	56
10	4	35	37	38	40
11	1	44	45	81	82
12	4	9	8	7	35
13	1	44	45	46	48
14	1	8	9	10	12
15	13	31	28	27	33
16	1	1	2	37	35
17	5	9	8	27	34
18	5	7	8	27	34
19	4	20	17	16	21
20	1	55	57	60	65
21	1	9	10	12	14
22	5	29	28	27	33
23	1	10	12	14	16
24	4	21	9	8	27
25	1	50	79	81	82
26	6	67	51	71	77
27	1	48	50	79	80
28	4	35	37	38	41
29	1	12	14	16	17
30	2	12	14	15	42
31	6	23	8	27	33
32	1	52	53	55	57
33	4	10	9	8	23
34	4	18	17	16	21
35	1	2	3	5	7
36	13	31	28	27	34
37	6	68	67	51	71
38	12	30	29	28	31
39	5	50	51	67	68
40	1	3	5	7	8
41	4	45	81	82	83
42	4	7	8	9	10
43	4	65	52	51	71
44	4	79	81	82	85
45	6	51	71	72	76
46	1	1	2	3	4
47	13	76	72	71	77
48	6	24	23	8	27
49	8	43	42	86	87
50	5	52	51	67	69
51	6	23	8	27	34
52	5	50	51	71	72
53	5	50	51	71	78
54	1	55	57	60	61
55	5	50	51	67	70
56	1	3	2	37	35
57	1	56	55	57	60
58	5	9	8	27	33
59	7	14	15	42	86
60	1	58	57	60	65
61	4	45	81	82	84
62	5	9	8	23	26
63	1	13	12	14	15
64	4	50	51	52	53
65	1	8	7	35	37
66	1	11	10	12	13
67	2	3	2	1	44
68	4	64	61	60	65
69	5	9	8	23	24
70	4	14	16	17	19
71	12	74	73	72	76
72	13	75	72	71	78
73	5	73	72	71	77
74	4	2	37	38	40
75	1	5	7	35	36
76	1	12	14	16	21
77	5	52	51	71	77
78	1	46	45	81	82
79	14	59	58	57	60
80	1	45	81	79	80
81	1	17	16	21	22
82	1	51	52	53	54
83	1	53	55	57	58
84	1	49	48	50	79
85	12	71	72	73	74
86	4	2	37	38	41
87	1	8	7	35	36
88	1	14	16	21	22
89	1	80	79	81	82
90	1	51	52	65	60
91	1	4	3	5	6
92	4	62	61	60	65
93	2	16	14	15	42
94	8	43	42	86	88
95	9	67	51	71	72
95	10	67	51	71	72
95	11	67	51	71	72
96	1	7	35	37	38
97	2	1	44	45	46
98	1	53	52	65	60
99	4	48	50	51	67
100	4	35	37	38	39
101	1	9	21	16	17
102	6	69	67	51	71
103	5	9	8	27	28
104	5	7	8	27	28
105	1	61	60	65	66
106	1	1	2	3	5
107	3	2	1	44	45
108	1	47	46	48	49
109	1	44	45	46	47
110	1	54	53	55	57
111	4	21	9	8	23
112	4	48	50	51	71
113	1	6	5	7	35
114	4	50	51	52	65
115	1	11	10	12	14
116	5	50	51	67	69
117	13	76	72	71	78
118	14	55	57	58	59
119	1	49	48	50	51
120	1	46	48	50	51
121	1	5	3	2	37
122	1	10	12	14	15
123	1	2	37	35	36
124	2	1	44	45	81
125	4	14	16	17	20
126	5	52	51	67	68
127	1	56	55	57	58
128	1	52	65	60	61
129	1	8	9	21	16
130	4	79	81	82	84
131	8	15	42	86	88
132	4	45	81	82	85
133	4	7	8	9	21
134	1	47	46	45	81
135	4	53	52	51	67
136	9	23	8	27	28
136	10	23	8	27	28
136	11	23	8	27	28
137	1	57	60	65	66
138	4	14	16	17	18
139	1	51	50	79	80
140	4	71	51	50	79
141	5	73	72	71	78
142	1	44	45	81	79
143	5	52	51	71	72
144	1	46	48	50	79
145	5	7	8	23	25
146	1	2	3	5	6
147	1	45	46	48	49
148	1	12	10	9	21
149	1	6	5	7	8
150	1	15	14	16	17
151	1	52	65	60	57
152	1	52	53	55	56
153	1	58	57	60	61
154	1	4	3	2	37
155	1	8	9	21	22
156	6	8	27	28	32
157	4	67	51	50	79
158	13	75	72	71	77
159	6	67	51	71	78
160	1	48	50	79	81
161	6	70	67	51	71
162	4	5	7	8	9
163	8	15	42	86	87
164	12	30	29	28	32
165	12	74	73	72	75
166	2	37	2	1	44
167	4	2	37	38	39
168	13	32	28	27	33
169	4	79	81	82	83
170	1	3	5	7	35
171	2	14	15	42	43
172	12	27	28	29	30
173	1	36	35	37	38
174	1	8	9	10	11
175	1	10	9	21	22
176	1	51	52	65	66
177	5	7	8	23	26
178	4	5	7	8	27
179	1	9	21	16	14
180	1	13	12	14	16
181	4	57	60	61	63
182	6	25	23	8	27
183	5	7	8	23	24
184	4	19	17	16	21
185	1	1	2	37	38
186	1	11	10	9	21
187	13	32	28	27	34
188	5	51	71	72	73
189	4	27	8	7	35
190	1	51	52	53	55
191	1	53	52	65	66
192	1	9	10	12	13
193	6	8	27	28	31
194	1	15	14	16	21
195	5	8	27	28	29
196	5	9	8	23	25
197	4	63	61	60	65
198	4	57	60	61	64
199	4	65	52	51	67
200	5	50	51	71	77
201	6	51	71	72	75
202	4	52	51	50	79
203	1	48	46	45	81
204	5	52	51	71	78
205	1	4	3	5	7
206	4	48	50	51	52
207	5	52	51	67	70
208	5	29	28	27	34
209	4	53	52	51	71
210	4	23	8	7	35
211	1	46	45	81	79
212	1	45	46	48	50
213	4	5	7	8	23
214	4	57	60	61	62
215	1	5	7	35	37
216	1	10	9	21	16
217	1	2	37	35	7
218	1	51	50	79	81
219	1	54	53	52	65

Impropers

8	1	21	9	16	22
11	1	86	88	42	87
14	1	10	9	11	12
15	1	16	14	17	21
28	1	45	44	46	81
30	1	2	3	37	1
31	1	86	42	87	88
34	1	10	11	12	9
38	1	9	8	10	21
39	1	7	35	5	8
54	1	37	38	2	35
58	1	35	37	7	36
63	1	55	56	57	53
68	1	14	12	15	16
74	1	3	5	2	4
83	1	9	10	21	8
85	1	50	79	48	51
89	1	5	6	7	3
92	1	60	61	65	57
96	2	42	15	43	86
99	1	46	45	47	48
101	1	21	16	22	9
103	1	65	60	66	52
110	1	81	82	45	79
116	1	35	36	37	7
119	1	79	80	81	50
130	1	12	13	14	10
135	1	81	45	79	82
136	1	16	17	21	14
137	1	53	54	55	52
141	1	37	35	38	2
154	1	9	21	8	10
158	1	48	50	46	49
162	1	65	52	60	66
163	1	79	81	50	80
164	1	45	81	44	46
185	1	81	79	82	45
195	1	48	46	49	50
201	1	48	49	50	46
210	1	46	47	48	45
214	1	79	50	80	81
215	1	5	7	3	6
217	1	50	48	51	79
218	2	42	86	15	43
228	1	12	10	13	14
232	1	57	58	60	55
237	1	3	2	4	5
244	1	7	5	8	35
249	1	45	46	81	44
251	1	10	12	9	11
252	1	52	65	51	53
256	1	14	16	12	15
258	1	55	53	56	57
274	1	35	7	36	37
284	1	60	65	57	61
290	1	57	60	55	58
303	1	52	53	65	51
314	1	53	52	54	55
319	1	21	22	9	16
327	2	42	43	86	15
333	1	12	14	10	13
339	1	3	4	5	2
346	1	50	51	79	48
350	1	2	1	3	37
351	1	52	51	53	65
356	1	86	87	88	42
371	1	65	66	52	60
375	1	55	57	53	56
377	1	5	3	6	7
386	1	16	21	14	17
396	1	46	48	45	47
404	1	2	37	1	3
410	1	7	8	35	5
412	1	14	15	16	12
415	1	60	57	61	65
420	1	37	2	35	38
431	1	57	55	58	60
444	1	53	55	52	54
