Title

88 atoms
91 bonds
156 angles
223 dihedrals
78 impropers

11 atom types
15 bond types
7 angle types
14 dihedral types
2 improper types
-7.046000004 92.954 xlo xhi
-3.10800004 96.89199996 ylo yhi
-8.604000092 91.39599991 zlo zhi
0.0 0.0 0.0 xy xz yz

Masses

1	15.99943
2	12.01078
3	1.007947
4	12.01078
5	1.007947
6	12.01078
7	14.00672
8	15.99943
9	15.99943
10	1.007947
11	35.4532


Pair Coeffs

1	0.16846514	3.0251065
2	0.086879315	3.4806469
3	0.015611343	2.5725815
4	0.10884061	3.3795318
5	0.015779483	2.6445434
6	0.21	3.3996695
7	0.16769152	3.206876
8	0.2102061	3.0398122
9	0.20947353	2.99716
10	1.2326e-05	0.53453923
11	0.2656001	3.3075278

Bond Coeffs

1 harmonic	425.69104206635	1.362945806494
2 harmonic	300.03137914615	1.451203938761
3 harmonic	360.7852444772	1.387193227181
4 harmonic	397.2545789619	1.085358495916
5 harmonic	289.73813263395	1.498646816465
6 harmonic	264.62148576755	1.52190126495
7 harmonic	301.15400723785	1.345741232799
8 harmonic	370.04670688625	1.093899492634
9 harmonic	395.4694036448	1.466849154707
10 harmonic	811.0999739605001	1.165766525576
11 harmonic	582.698766451	1.225198386222
12 harmonic	279.1350963404	1.454628925034
13 harmonic	385.7604595587	1.369745182308
14 harmonic	543.5267831885	0.9716763312559
15 harmonic	218.0227703685	1.746066037062


Angle Coeffs

1 harmonic	57.8982893754	126.8062420451
2 harmonic	65.09061609600001	110.3538806181
3 harmonic	34.066775159195	129.1835929926
4 harmonic	53.20531626545	116.5475862634
5 harmonic	201.41175231035	127.4691416191
6 harmonic	48.776492647595	115.6030999533
7 harmonic	33.56981613361	180


Dihedral Coeffs

1 fourier 1	3.661930099076	2	180
2 fourier 1	1.532232714475	2	180
3 fourier 1	0.457973137376	1	0
4 fourier 1	0.02664938770063	3	0
5 fourier 1	0.1155372516788	3	0
6 fourier 1	0.1040663847541	3	0
7 fourier 1	2.779853741805	2	180
8 fourier 1	0.9974165607242	2	180
9 fourier 1	0.09223874044423	3	0
10 fourier 1	0.3159935921949	2	180
11 fourier 1	0.3247796806857	1	180
12 fourier 1	0	1	0
13 fourier 1	0.1911926717192	3	0
14 fourier 1	0.8283030590042	2	180


Improper Coeffs

1 0.3666666666666667	-1	2
2 3.5	-1	2


Atoms

1	1	1	-9.5000003e-05	5.085	-0.161	1.75
2	1	2	0.091829002	3.8469999	-0.233	1.11
3	1	2	-0.24988399	2.786	-0.64700001	1.807
4	1	3	0.23047	2.895	-0.92799997	2.8469999
5	1	2	-0.150501	1.4579999	-0.73000002	1.174
6	1	3	0.215351	0.64600003	-1.133	1.766
7	1	2	-0.226237	1.2589999	-0.324	-0.1
8	1	4	0.023800001	-0.132	-0.505	-0.76099998
9	1	2	-0.226237	-1.2920001	-0.184	0.21600001
10	1	2	-0.15118299	-1.191	0.833	1.101
11	1	3	0.215351	-0.289	1.426	1.1720001
12	1	2	-0.21777301	-2.3069999	1.1799999	1.998
13	1	3	0.230358	-2.1789999	1.98	2.717
14	1	2	0.312356	-3.4679999	0.523	1.927
15	1	1	-0.414906	-4.4970002	0.88200003	2.7980001
16	1	2	-0.091251999	-3.6370001	-0.56400001	0.92299998
17	1	4	-0.13195901	-4.9499998	-1.288	0.80299997
18	1	5	0.099179998	-5.1880002	-1.791	1.763
19	1	5	0.099179998	-5.7540002	-0.56199998	0.55900002
20	1	5	0.099179998	-4.9310002	-2.0610001	0.0049999999
21	1	2	-0.265562	-2.609	-0.884	0.114
22	1	3	0.215536	-2.7539999	-1.655	-0.62699997
23	1	4	-0.131708	-0.168	-1.998	-1.182
24	1	5	0.088122003	-0.23100001	-2.658	-0.28999999
25	1	5	0.088122003	0.75099999	-2.2679999	-1.748
26	1	5	0.088122003	-1.021	-2.2290001	-1.854
27	1	4	-0.093154997	-0.34799999	0.34900001	-2.062
28	1	4	-0.122333	-0.52700001	1.873	-1.8940001
29	1	6	0.189991	0.65200001	2.5480001	-1.342
30	1	7	-0.288863	1.576	3.0910001	-0.90700001
31	1	5	0.121209	-0.727	2.312	-2.895
32	1	5	0.121209	-1.411	2.102	-1.265
33	1	5	0.113624	-1.289	-0.003	-2.5420001
34	1	5	0.113624	0.43099999	0.142	-2.822
35	1	2	-0.26815099	2.467	0.064000003	-0.89200002
36	1	3	0.215536	2.3770001	0.301	-1.9400001
37	1	2	-0.079517998	3.687	0.12800001	-0.32499999
38	1	4	-0.13508099	4.881	0.54500002	-1.14
39	1	5	0.099179998	4.6129999	0.764	-2.1960001
40	1	5	0.099179998	5.6360002	-0.26899999	-1.1390001
41	1	5	0.099179998	5.3280001	1.462	-0.70200002
42	1	2	0.63001001	-5.4310002	0.40700001	2.7939999
43	1	8	-0.483188	-6.4530001	1.071	2.799
44	1	1	-9.5000003e-05	5.9260001	0.14399999	1.277
45	1	2	0.091829002	6.0209999	0.21600001	-0.113
46	1	2	-0.24988399	7.1680002	0.63	-0.65700001
47	1	3	0.23047	8	0.912	-0.024
48	1	2	-0.150501	7.3169999	0.71399999	-2.1210001
49	1	3	0.215351	8.2440004	1.117	-2.507
50	1	2	-0.226237	6.3309999	0.30700001	-2.9530001
51	1	4	0.023800001	6.4889998	0.48800001	-4.4850001
52	1	2	-0.226237	7.9260001	0.167	-4.9689999
53	1	2	-0.110063	8.6309996	-0.85000002	-4.4229999
54	1	3	0.215351	8.2220001	-1.443	-3.615
55	1	2	-0.38248599	9.9770002	-1.197	-4.9109998
56	1	3	0.235999	10.525	-1.9960001	-4.427
57	1	2	0.292234	10.519	-0.53899997	-5.9390001
58	1	9	-0.63487601	11.798	-0.89899999	-6.3660002
59	1	10	0.44018701	12.263	-0.44	-7.1389999
60	1	2	-0.26365301	9.7489996	0.54699999	-6.605
61	1	4	-0.117906	10.328	1.271	-7.79
62	1	5	0.099179998	11.272	1.774	-7.494
63	1	5	0.099179998	10.537	0.54500002	-8.6040001
64	1	5	0.099179998	9.6359997	2.0439999	-8.1879997
65	1	2	-0.227743	8.5240002	0.86699998	-6.1469998
66	1	3	0.215536	7.9650002	1.638	-6.6560001
67	1	4	-0.131708	6.1479998	1.9809999	-4.7350001
68	1	5	0.088122003	6.9429998	2.641	-4.3249998
69	1	5	0.088122003	5.1869998	2.2509999	-4.243
70	1	5	0.088122003	6.0170002	2.2119999	-5.8119998
71	1	4	-0.093154997	5.4899998	-0.36500001	-5.3449998
72	1	4	-0.122333	5.7259998	-1.89	-5.4109998
73	1	6	0.189991	5.585	-2.5650001	-4.1170001
74	1	7	-0.288863	5.4770002	-3.108	-3.1010001
75	1	5	0.121209	4.9749999	-2.329	-6.1020002
76	1	5	0.121209	6.7220001	-2.119	-5.8400002
77	1	5	0.113624	5.5689998	-0.014	-6.3990002
78	1	5	0.113624	4.4349999	-0.15899999	-5.0739999
79	1	2	-0.26815099	5.027	-0.081	-2.332
80	1	3	0.215536	4.178	-0.31799999	-2.9530001
81	1	2	-0.079517998	4.8779998	-0.145	-0.995
82	1	4	-0.13508099	3.562	-0.56199998	-0.398
83	1	5	0.099179998	2.799	-0.78100002	-1.175
84	1	5	0.099179998	3.171	0.252	0.248
85	1	5	0.099179998	3.704	-1.479	0.212
86	1	2	0.469208	-5.4879999	-0.676	2.7850001
87	1	8	-0.553882	-4.4699998	-1.34	2.691
88	1	11	-0.074340999	-7.046	-1.473	2.9070001

Bonds

1	1	1	2
2	2	1	44
3	3	2	3
4	3	2	37
5	4	3	4
6	3	3	5
7	4	5	6
8	3	5	7
9	5	7	8
10	3	7	35
11	5	8	9
12	6	8	23
13	6	8	27
14	3	9	10
15	3	9	21
16	4	10	11
17	3	10	12
18	4	12	13
19	3	12	14
20	1	14	15
21	3	14	16
22	7	15	42
23	5	16	17
24	3	16	21
25	8	17	18
26	8	17	19
27	8	17	20
28	4	21	22
29	8	23	24
30	8	23	25
31	8	23	26
32	6	27	28
33	8	27	33
34	8	27	34
35	9	28	29
36	8	28	31
37	8	28	32
38	10	29	30
39	4	35	36
40	3	35	37
41	5	37	38
42	8	38	39
43	8	38	40
44	8	38	41
45	11	42	43
46	12	42	86
47	1	44	45
48	3	45	46
49	3	45	81
50	4	46	47
51	3	46	48
52	4	48	49
53	3	48	50
54	5	50	51
55	3	50	79
56	5	51	52
57	6	51	67
58	6	51	71
59	3	52	53
60	3	52	65
61	4	53	54
62	3	53	55
63	4	55	56
64	3	55	57
65	13	57	58
66	3	57	60
67	14	58	59
68	5	60	61
69	3	60	65
70	8	61	62
71	8	61	63
72	8	61	64
73	4	65	66
74	8	67	68
75	8	67	69
76	8	67	70
77	6	71	72
78	8	71	77
79	8	71	78
80	9	72	73
81	8	72	75
82	8	72	76
83	10	73	74
84	4	79	80
85	3	79	81
86	5	81	82
87	8	82	83
88	8	82	84
89	8	82	85
90	11	86	87
91	15	86	88

Angles

1	4	27	28	31
2	1	42	86	87
3	1	58	57	60
4	1	3	5	7
5	1	2	37	35
6	6	24	23	25
7	1	2	37	38
8	4	16	17	18
9	6	69	67	70
10	1	8	9	21
11	4	37	38	39
12	4	51	67	70
13	1	87	86	88
14	4	60	61	64
15	3	36	35	37
16	4	28	27	33
17	5	15	42	43
18	2	2	1	44
19	1	2	3	5
20	6	62	61	64
21	3	13	12	14
22	1	5	7	35
23	1	46	45	81
24	4	51	67	69
25	3	9	10	11
26	1	8	9	10
27	1	50	79	81
28	1	46	48	50
29	3	45	46	47
30	1	3	2	37
31	4	23	8	27
32	6	31	28	32
33	1	12	14	15
34	4	67	51	71
35	6	77	71	78
36	4	73	72	76
37	1	7	35	37
38	1	51	50	79
39	4	8	23	24
40	4	7	8	27
41	6	18	17	20
42	1	45	81	82
43	6	19	17	20
44	6	84	82	85
45	1	1	2	37
46	4	8	23	25
47	4	28	27	34
48	3	7	35	36
49	4	51	71	72
50	6	24	23	26
51	4	37	38	41
52	3	4	3	5
53	7	72	73	74
54	2	57	58	59
55	3	46	48	49
56	4	52	51	67
57	3	80	79	81
58	3	16	21	22
59	1	53	55	57
60	1	48	50	51
61	4	8	27	28
62	6	83	82	84
63	6	39	38	41
64	3	53	55	56
65	3	10	12	13
66	3	6	5	7
67	3	9	21	22
68	3	52	65	66
69	1	15	42	86
70	4	81	82	85
71	2	14	15	42
72	4	16	17	20
73	3	54	53	55
74	4	72	71	77
75	1	17	16	21
76	6	33	27	34
77	4	72	71	78
78	1	43	42	86
79	1	61	60	65
80	4	37	38	40
81	3	60	65	66
82	4	60	61	63
83	1	10	9	21
84	1	12	14	16
85	1	57	60	61
86	4	71	72	75
87	4	29	28	32
88	4	8	23	26
89	4	7	8	9
90	1	55	57	58
91	1	14	16	17
92	4	8	27	33
93	1	15	14	16
94	4	29	28	31
95	4	50	51	71
96	6	25	23	26
97	1	52	65	60
98	6	62	61	63
99	4	73	72	75
100	3	3	5	6
101	1	1	2	3
102	4	9	8	23
103	4	50	51	52
104	6	40	38	41
105	6	39	38	40
106	1	52	53	55
107	1	42	86	88
108	4	27	28	32
109	6	18	17	19
110	4	51	67	68
111	3	47	46	48
112	1	51	52	65
113	4	81	82	83
114	1	45	81	79
115	1	51	52	53
116	3	49	48	50
117	1	35	37	38
118	1	44	45	46
119	1	10	12	14
120	4	8	27	34
121	4	51	71	77
122	4	51	71	78
123	4	52	51	71
124	4	7	8	23
125	1	8	7	35
126	1	44	45	81
127	1	48	50	79
128	4	81	82	84
129	6	75	72	76
130	1	14	16	21
131	6	83	82	85
132	6	68	67	70
133	4	9	8	27
134	3	2	3	4
135	3	52	53	54
136	1	5	7	8
137	4	27	28	29
138	3	50	79	80
139	1	45	46	48
140	1	53	52	65
141	7	28	29	30
142	4	50	51	67
143	3	56	55	57
144	1	79	81	82
145	1	55	57	60
146	4	60	61	62
147	4	16	17	19
148	2	1	44	45
149	6	68	67	69
150	4	71	72	76
151	4	71	72	73
152	1	9	21	16
153	1	9	10	12
154	3	11	10	12
155	1	57	60	65
156	6	63	61	64

Dihedrals

1	1	13	12	14	16
2	1	52	65	60	57
3	1	4	3	2	37
4	1	6	5	7	8
5	1	2	3	5	7
6	4	19	17	16	21
7	2	3	2	1	44
8	1	10	12	14	15
9	4	35	37	38	39
10	13	75	72	71	77
11	1	47	46	45	81
12	13	75	72	71	78
13	1	10	9	21	16
14	4	57	60	61	63
15	1	52	53	55	56
16	6	67	51	71	77
17	1	46	48	50	51
18	5	50	51	67	68
19	2	37	2	1	44
20	1	47	46	48	50
21	6	67	51	71	78
22	1	9	10	12	14
23	1	55	57	60	61
24	1	45	81	79	80
25	1	54	53	55	57
26	2	1	44	45	46
27	2	12	14	15	42
28	4	20	17	16	21
29	1	80	79	81	82
30	2	16	14	15	42
31	4	65	52	51	71
32	1	36	35	37	38
33	2	1	44	45	81
34	8	15	42	86	88
35	1	58	57	60	61
36	1	48	46	45	81
37	2	14	15	42	43
38	4	45	81	82	83
39	4	48	50	51	67
40	1	55	53	52	65
41	5	9	8	23	26
42	8	15	42	86	87
43	4	27	8	7	35
44	4	5	7	8	9
45	1	46	45	81	79
46	1	48	50	79	81
47	5	50	51	67	70
48	1	56	55	57	58
49	6	70	67	51	71
50	5	7	8	23	26
51	1	12	14	16	17
52	1	11	10	12	13
53	12	74	73	72	75
54	1	44	45	81	82
55	1	12	10	9	21
56	1	2	37	35	36
57	1	53	52	65	60
58	13	32	28	27	34
59	1	47	46	48	49
60	1	1	2	3	4
61	4	35	37	38	41
62	4	52	51	50	79
63	4	2	37	38	39
64	9	23	8	27	28
64	10	23	8	27	28
64	11	23	8	27	28
65	8	43	42	86	88
66	4	79	81	82	84
67	4	21	9	8	23
68	4	53	52	51	67
69	1	6	5	7	35
70	1	57	60	65	66
71	13	32	28	27	33
72	6	68	67	51	71
73	1	11	10	9	21
74	6	51	71	72	75
75	1	3	5	7	8
76	5	52	51	71	72
77	1	49	48	50	79
78	1	53	52	65	66
79	4	7	8	9	21
80	1	51	52	65	60
81	1	9	21	16	17
82	5	50	51	71	77
83	1	54	53	55	56
84	1	5	7	35	36
85	4	9	8	7	35
86	5	50	51	71	78
87	1	15	14	16	17
88	1	3	2	37	35
89	1	44	45	46	47
90	1	8	9	21	16
91	1	8	9	10	12
92	4	57	60	61	62
93	1	3	2	37	38
94	1	12	14	16	21
95	5	29	28	27	34
96	5	52	51	67	68
97	4	64	61	60	65
98	4	7	8	9	10
99	1	55	57	60	65
100	1	46	48	50	79
101	1	1	2	37	38
102	1	61	60	65	66
103	4	18	17	16	21
104	4	21	9	8	27
105	1	51	52	65	66
106	4	71	51	50	79
107	12	30	29	28	32
108	4	35	37	38	40
109	1	45	46	48	50
110	5	9	8	27	28
111	1	56	55	57	60
112	5	29	28	27	33
113	1	50	79	81	82
114	4	2	37	38	41
115	4	45	81	82	84
116	4	62	61	60	65
117	1	53	55	57	58
118	4	67	51	50	79
119	5	50	51	67	69
120	1	45	81	79	50
121	1	11	10	12	14
122	1	58	57	60	65
123	1	1	2	3	5
124	5	8	27	28	29
125	1	14	16	21	22
126	5	73	72	71	77
127	12	74	73	72	76
128	5	73	72	71	78
129	1	10	9	21	22
130	5	52	51	67	70
131	4	50	51	52	65
132	5	9	8	23	24
133	9	67	51	71	72
133	10	67	51	71	72
133	11	67	51	71	72
134	4	57	60	61	64
135	8	43	42	86	87
136	4	50	51	52	53
137	4	48	50	51	71
138	1	54	53	52	65
139	1	5	7	35	37
140	5	7	8	23	24
141	1	9	21	16	14
142	6	8	27	28	32
143	1	4	3	5	6
144	1	10	12	14	16
145	1	15	14	16	21
146	6	25	23	8	27
147	1	2	3	5	6
148	1	13	12	14	15
149	1	8	9	10	11
150	4	14	16	17	20
151	6	23	8	27	34
152	4	48	50	51	52
153	6	69	67	51	71
154	4	5	7	8	23
155	1	44	45	81	79
156	1	45	46	48	49
157	5	9	8	27	33
158	4	65	52	51	67
159	1	51	52	53	55
160	4	79	81	82	85
161	1	46	45	81	82
162	3	2	1	44	45
163	1	8	7	35	37
164	1	4	3	5	7
165	1	1	2	37	35
166	6	23	8	27	33
167	4	53	52	51	71
168	1	9	10	12	13
169	5	7	8	27	28
170	1	52	53	55	57
171	4	2	37	38	40
172	4	10	9	8	23
173	7	14	15	42	86
174	1	52	65	60	61
175	1	8	7	35	36
176	6	24	23	8	27
177	12	30	29	28	31
178	4	63	61	60	65
179	6	26	23	8	27
180	12	71	72	73	74
181	13	31	28	27	34
182	12	27	28	29	30
183	4	14	16	17	19
184	1	2	37	35	7
185	5	52	51	71	77
186	13	76	72	71	77
187	1	44	45	46	48
188	5	52	51	71	78
189	13	76	72	71	78
190	5	7	8	27	34
191	4	5	7	8	27
192	1	53	55	57	60
193	5	9	8	27	34
194	1	51	52	53	54
195	14	55	57	58	59
196	5	9	8	23	25
197	1	48	50	79	80
198	1	7	35	37	38
199	4	23	8	7	35
200	13	31	28	27	33
201	14	59	58	57	60
202	5	7	8	23	25
203	5	50	51	71	72
204	1	51	50	79	80
205	6	8	27	28	31
206	1	3	5	7	35
207	1	5	3	2	37
208	5	7	8	27	33
209	5	52	51	67	69
210	4	14	16	17	18
211	4	45	81	82	85
212	1	49	48	50	51
213	1	8	9	21	22
214	4	79	81	82	83
215	6	51	71	72	76
216	1	51	50	79	81
217	4	10	9	8	27
218	5	51	71	72	73
219	1	17	16	21	22

Impropers

11	1	65	52	60	66
14	1	10	9	11	12
18	1	14	12	15	16
19	1	86	42	87	88
20	1	12	14	10	13
28	1	35	36	37	7
41	1	35	37	7	36
43	1	10	12	9	11
58	1	45	44	46	81
60	1	37	2	35	38
62	1	60	57	61	65
63	1	55	57	53	56
67	1	14	15	16	12
68	1	86	87	88	42
70	1	2	1	3	37
71	1	53	55	52	54
79	1	10	11	12	9
80	1	50	48	51	79
84	1	57	55	58	60
97	1	55	56	57	53
101	1	79	50	80	81
117	1	53	52	54	55
120	1	65	60	66	52
128	1	5	7	3	6
139	1	48	46	49	50
156	1	45	81	44	46
157	1	81	82	45	79
158	1	2	37	1	3
166	1	16	14	17	21
169	1	46	48	45	47
171	1	16	17	21	14
173	1	60	61	65	57
178	1	81	45	79	82
185	2	42	15	43	86
196	1	50	51	79	48
199	1	60	65	57	61
207	1	2	3	37	1
210	1	7	8	35	5
215	1	48	49	50	46
222	1	46	47	48	45
249	1	7	35	5	8
255	1	3	2	4	5
257	1	7	5	8	35
261	1	21	9	16	22
264	1	79	81	50	80
265	1	65	66	52	60
276	1	52	53	65	51
279	1	5	6	7	3
282	1	12	10	13	14
285	1	9	10	21	8
286	1	79	80	81	50
287	1	50	79	48	51
291	1	5	3	6	7
308	1	37	38	2	35
311	1	21	22	9	16
312	1	3	4	5	2
315	1	57	58	60	55
318	1	12	13	14	10
329	1	81	79	82	45
330	1	53	54	55	52
331	1	46	45	47	48
338	1	16	21	14	17
350	1	35	7	36	37
357	2	42	86	15	43
364	1	55	53	56	57
378	1	48	50	46	49
383	1	52	51	53	65
388	1	9	8	10	21
392	1	37	35	38	2
403	1	3	5	2	4
407	1	21	16	22	9
422	1	86	88	42	87
424	1	14	16	12	15
428	1	52	65	51	53
431	1	45	46	81	44
437	1	57	60	55	58
438	2	42	43	86	15
439	1	9	21	8	10
