Title

8500 atoms
8875 bonds
14750 angles
21375 dihedrals
9750 impropers

10 atom types
14 bond types
6 angle types
9 dihedral types
2 improper types
-9.380204334 97.35194519 xlo xhi
-9.100460651 96.83021511 ylo yhi
-9.25098978 98.36954576 zlo zhi
0.0 0.0 0.0 xy xz yz

Masses

1	15.99943
2	12.01078
3	79.9041
4	1.007947
5	12.01078
6	1.007947
7	15.99943
8	15.99943
9	1.007947
10	35.4532


Pair Coeffs

1	0.16846514	3.0251065
2	0.086879315	3.4806469
3	0.32189864	3.5097963
4	0.015611343	2.5725815
5	0.10884061	3.3795318
6	0.015779483	2.6445434
7	0.2102061	3.0398122
8	0.20947353	2.99716
9	1.2326e-05	0.53453923
10	0.2656001	3.3075278

Bond Coeffs

1 harmonic	425.69104206635	1.362945806494
2 harmonic	300.03137914615	1.451203938761
3 harmonic	360.7852444772	1.387193227181
4 harmonic	203.9927893677	1.911636491655
5 harmonic	397.2545789619	1.085358495916
6 harmonic	289.73813263395	1.498646816465
7 harmonic	264.62148576755	1.52190126495
8 harmonic	301.15400723785	1.345741232799
9 harmonic	370.04670688625	1.093899492634
10 harmonic	582.698766451	1.225198386222
11 harmonic	279.1350963404	1.454628925034
12 harmonic	385.7604595587	1.369745182308
13 harmonic	543.5267831885	0.9716763312559
14 harmonic	218.0227703685	1.746066037062


Angle Coeffs

1 harmonic	57.8982893754	126.8062420451
2 harmonic	65.09061609600001	110.3538806181
3 harmonic	34.066775159195	129.1835929926
4 harmonic	53.20531626545	116.5475862634
5 harmonic	201.41175231035	127.4691416191
6 harmonic	48.776492647595	115.6030999533


Dihedral Coeffs

1 fourier 1	3.661930099076	2	180
2 fourier 1	1.532232714475	2	180
3 fourier 1	0.457973137376	1	0
4 fourier 1	0.02664938770063	3	0
5 fourier 1	0.1155372516788	3	0
6 fourier 1	2.779853741805	2	180
7 fourier 1	0.9974165607242	2	180
8 fourier 1	0.1040663847541	3	0
9 fourier 1	0.8283030590042	2	180


Improper Coeffs

1 0.3666666666666667	-1	2
2 3.5	-1	2


Atoms

1	4	1	-0.11135717	-3.6809638	0.79842287	1.0114253
2	4	2	0.37232539	-2.6684742	-0.14794947	1.1754043
3	4	2	-0.22159186	-2.4257965	-0.64905117	2.3954422
4	4	3	-0.065409112	-3.4475563	-0.087221729	3.9133933
5	4	2	-0.0090465475	-1.3581658	-1.64945	2.5900905
6	4	4	0.21256295	-1.1981182	-2.0408863	3.5876633
7	4	2	-0.25849146	-0.59150109	-2.0665443	1.559784
8	4	5	0.020430705	0.5002769	-3.1274712	1.8048531
9	4	2	-0.25849146	1.3872451	-2.7024506	2.991186
10	4	2	0.008085636	1.9277757	-1.4643402	3.0100104
11	4	4	0.21256295	1.7259209	-0.76629373	2.2074976
12	4	2	-0.22345244	2.7999095	-1.0215971	4.1179414
13	4	3	-0.065890092	3.4826945	0.76820137	4.0498291
14	4	2	0.62412846	3.0865526	-1.8671623	5.1263526
15	4	1	-0.43842206	3.9039463	-1.4926274	6.1953971
16	4	2	-0.22345247	2.5262297	-3.2360608	5.1094634
17	4	3	-0.065890092	2.9372311	-4.4562575	6.5245591
18	4	2	0.0080857403	1.7316662	-3.6324536	4.1066157
19	4	4	0.21256292	1.3481314	-4.6414693	4.1297312
20	4	5	-0.12960032	-0.22093845	-4.4745467	2.0503364
21	4	6	0.090102841	0.50386593	-5.3160881	2.1051154
22	4	6	0.090102841	-0.81085928	-4.4469264	2.9915721
23	4	6	0.090102841	-0.92131869	-4.6962749	1.2155118
24	4	5	-0.12960032	1.4318821	-3.3180828	0.58325044
25	4	6	0.090102841	2.2600564	-4.0170707	0.83450372
26	4	6	0.090102841	1.8847861	-2.3525598	0.27161054
27	4	6	0.090102841	0.88250022	-3.7517623	-0.27952337
28	4	2	-0.0090464954	-0.88489218	-1.5155785	0.20326994
29	4	4	0.21256295	-0.3185555	-1.8353909	-0.65891785
30	4	2	-0.22159195	-1.856661	-0.61149538	0.021223308
31	4	3	-0.065409112	-2.1726589	0.054127629	-1.7479803
32	5	2	0.62883776	4.3401726	-0.54323422	6.2818159
33	5	7	-0.47732094	5.3805365	-0.40413937	6.903547
34	1	1	-0.11135717	-3.9020627	1.2070698	0.11337407
35	1	2	0.37232539	-2.9211639	1.5253759	-0.82609218
36	1	2	-0.22159186	-3.281997	2.0637269	-2.0005583
37	1	3	-0.065409112	-5.1225036	2.4026309	-2.4043103
38	1	2	-0.0090465475	-2.2601466	2.4058707	-3.0096789
39	1	4	0.21256295	-2.5884937	2.8502705	-3.9406172
40	1	2	-0.25849146	-0.94913919	2.1683343	-2.7874876
41	1	5	0.020430705	0.086644281	2.5588808	-3.8595133
42	1	2	-0.25849146	-0.33453824	1.9871536	-5.2279804
43	1	2	0.044446037	-0.64663947	0.67709494	-5.3361103
44	1	4	0.21256295	-0.61886118	0.033842004	-4.4648951
45	1	2	-0.28644643	-1.0364975	0.08133853	-6.6315886
46	1	3	-0.074333269	-1.4869124	-1.7816833	-6.6537009
47	1	2	0.59814965	-1.0666167	0.84610068	-7.7401813
48	1	8	-0.63618023	-1.4308244	0.32877891	-8.9855391
49	1	9	0.43444737	-1.6919453	-0.63722122	-9.1304756
50	1	2	-0.2864464	-0.702165	2.2766876	-7.6466242
51	1	3	-0.074333269	-0.7208375	3.3742884	-9.2136254
52	1	2	0.044446096	-0.35448767	2.8139075	-6.4703736
53	1	4	0.21256292	-0.089312686	3.8612489	-6.4470231
54	1	5	-0.12960032	0.18032908	4.1037021	-3.8613596
55	1	6	0.090102841	1.0043358	4.4562076	-4.5188874
56	1	6	0.090102841	-0.77178886	4.5619159	-4.2022724
57	1	6	0.090102841	0.39149696	4.4785102	-2.8361806
58	1	5	-0.12960032	1.5007257	2.0094876	-3.5526161
59	1	6	0.090102841	2.192859	2.2304473	-4.3939539
60	1	6	0.090102841	1.4800038	0.90777756	-3.4087878
61	1	6	0.090102841	1.9272843	2.4828977	-2.6416147
62	1	2	-0.0090464954	-0.55807385	1.5865892	-1.4688862
63	1	4	0.21256295	0.47907169	1.4011576	-1.2299987
64	1	2	-0.22159195	-1.4825419	1.2799227	-0.54842251
65	1	3	-0.065409112	-0.90607937	0.53222146	1.1196805
66	2	2	0.46994716	3.8667492	0.31528066	5.8189947
67	2	7	-0.54586959	2.875553	0.16358163	5.1252659
68	2	10	-0.070514801	4.5247149	1.9206206	6.0701237
69	4	1	-0.11135717	-0.39723099	3.8792639	19.618087
70	4	2	0.37232539	-0.76173421	2.7401043	20.337182
71	4	2	-0.22159186	-0.68482575	2.7530074	21.67599
72	4	3	-0.065409112	-0.084629279	4.309656	22.614302
73	4	2	-0.0090465475	-1.0639568	1.5578089	22.454631
74	4	4	0.21256295	-1.0002316	1.6084116	23.535078
75	4	2	-0.25849146	-1.4737033	0.42464569	21.845268
76	4	5	0.020430705	-1.8783485	-0.79425566	22.698582
77	4	2	-0.25849146	-0.76913755	-1.1099886	23.72069
78	4	2	0.008085636	0.50840445	-1.2387238	23.300264
79	4	4	0.21256295	0.7575076	-1.1031185	22.255467
80	4	2	-0.22345244	1.6005475	-1.5601335	24.242638
81	4	3	-0.065890092	3.3769389	-1.6862741	23.5336
82	4	2	0.62412846	1.3273874	-1.7513831	25.547569
83	4	1	-0.43842206	2.3266835	-2.0547584	26.475273
84	4	2	-0.22345247	-0.069344624	-1.6416633	26.022154
85	4	3	-0.065890092	-0.47811905	-1.9276379	27.869157
86	4	2	0.0080857403	-1.0561561	-1.3448186	25.166439
87	4	4	0.21256292	-2.0622466	-1.2796883	25.552815
88	4	5	-0.12960032	-3.2298369	-0.45134437	23.370086
89	4	6	0.090102841	-3.6526893	-1.3332817	23.899157
90	4	6	0.090102841	-3.1159189	0.38220375	24.095974
91	4	6	0.090102841	-3.9735266	-0.13783814	22.605058
92	4	5	-0.12960032	-2.094732	-2.0710194	21.850298
93	4	6	0.090102841	-2.2888247	-2.9450584	22.510577
94	4	6	0.090102841	-1.1967368	-2.3006569	21.237642
95	4	6	0.090102841	-2.9712564	-1.963925	21.176122
96	4	2	-0.0090464954	-1.5736439	0.42988991	20.355383
97	4	4	0.21256295	-1.9205735	-0.44176829	19.820372
98	4	2	-0.22159195	-1.2357721	1.5144025	19.645089
99	4	3	-0.065409112	-1.3857562	1.4455996	17.735702
100	5	2	0.62883776	3.3390844	-2.1509538	26.220519
101	5	7	-0.47732094	4.0713431	-2.8622773	26.888404
102	1	1	-0.11135717	-0.436141	3.9196997	18.608521
103	1	2	0.37232539	-0.10144656	2.831536	17.802321
104	1	2	-0.22159186	-0.17670304	2.9505389	16.468317
105	1	3	-0.065409112	-0.73480199	4.5919588	15.656158
106	1	2	-0.0090465475	0.17071515	1.8105747	15.596912
107	1	4	0.21256295	0.1098452	1.9483627	14.524877
108	1	2	-0.25849146	0.54943948	0.62228682	16.115634
109	1	5	0.020430705	0.92248173	-0.53584072	15.170016
110	1	2	-0.25849146	-0.19396559	-0.74082858	14.126707
111	1	2	0.044446037	-1.4750517	-0.86745906	14.536751
112	1	4	0.21256295	-1.7212656	-0.80827122	15.590049
113	1	2	-0.28644643	-2.5752917	-1.085205	13.573819
114	1	3	-0.074333269	-4.3551071	-1.2186533	14.272862
115	1	2	0.59814965	-2.3060801	-1.180697	12.257327
116	1	8	-0.63618023	-3.3121561	-1.3836946	11.30981
117	1	9	0.43444737	-4.2908467	-1.4691131	11.549008
118	1	2	-0.2864464	-0.90628262	-1.0714217	11.791727
119	1	3	-0.074333269	-0.5022583	-1.2233028	9.9277891
120	1	2	0.044446096	0.087080591	-0.86906748	12.66656
121	1	4	0.21256292	1.0959698	-0.80152113	12.28529
122	1	5	-0.12960032	2.2832109	-0.1777213	14.525486
123	1	6	0.090102841	2.6819337	-1.0267229	13.928991
124	1	6	0.090102841	2.192476	0.71186028	13.867366
125	1	6	0.090102841	3.0333206	0.055103782	15.312374
126	1	5	-0.12960032	1.1022512	-1.8809805	15.914279
127	1	6	0.090102841	1.2749122	-2.7049632	15.188358
128	1	6	0.090102841	0.19788649	-2.1341501	16.508342
129	1	6	0.090102841	1.9816484	-1.8504035	16.593778
130	1	2	-0.0090464954	0.64794439	0.50793081	17.601329
131	1	4	0.21256295	0.97104209	-0.41192338	18.066731
132	1	2	-0.22159195	0.33863979	1.5424013	18.395142
133	1	3	-0.065409112	0.48479542	1.3202394	20.293356
134	2	2	0.46994716	3.7356945	-1.6181079	25.36369
135	2	7	-0.54586959	2.9872871	-0.97722358	24.645431
136	2	10	-0.070514801	5.4522836	-1.6761091	25.012893
137	4	1	-0.11135717	3.2523697	-2.0745102	39.927157
138	4	2	0.37232539	1.86386	-2.1356755	40.05343
139	4	2	-0.22159186	1.2133508	-3.2376995	39.652346
140	4	3	-0.065409112	2.1603038	-4.7270612	38.911466
141	4	2	-0.0090465475	-0.25508748	-3.3212933	39.775724
142	4	4	0.21256295	-0.74571538	-4.2315836	39.452235
143	4	2	-0.25849146	-0.97701197	-2.2931537	40.270727
144	4	5	0.020430705	-2.5073943	-2.4308097	40.399508
145	4	2	-0.25849146	-3.1053553	-2.906176	39.061147
146	4	2	0.008085636	-2.7903165	-2.2539346	37.920631
147	4	4	0.21256295	-2.1077592	-1.413844	37.940737
148	4	2	-0.22345244	-3.3557736	-2.6633803	36.618033
149	4	3	-0.065890092	-2.8102323	-1.6812689	35.064953
150	4	2	0.62412846	-4.2205117	-3.6940663	36.555165
151	4	1	-0.43842206	-4.7787317	-4.118025	35.346896
152	4	2	-0.22345247	-4.5987667	-4.4031388	37.797047
153	4	3	-0.065890092	-5.8393551	-5.8579875	37.728828
154	4	2	0.0080857403	-4.0802617	-4.0330784	38.975338
155	4	4	0.21256292	-4.3869342	-4.5733829	39.858383
156	4	5	-0.12960032	-2.7796015	-3.4179383	41.559899
157	4	6	0.090102841	-3.8640495	-3.4683421	41.80066
158	4	6	0.090102841	-2.4195611	-4.4389109	41.309539
159	4	6	0.090102841	-2.252213	-3.0869524	42.481277
160	4	5	-0.12960032	-3.1985814	-1.0931079	40.759158
161	4	6	0.090102841	-4.3043701	-1.214184	40.746623
162	4	6	0.090102841	-2.9353926	-0.29831498	40.028739
163	4	6	0.090102841	-2.9140273	-0.75284697	41.77775
164	4	2	-0.0090464954	-0.23886408	-1.0797816	40.731854
165	4	4	0.21256295	-0.76608932	-0.23985203	41.159565
166	4	2	-0.22159195	1.094456	-1.0019469	40.626776
167	4	3	-0.065409112	1.9727728	0.58893889	41.235572
168	5	2	0.62883776	-4.5636319	-3.669207	34.424181
169	5	7	-0.47732094	-5.3812589	-3.7115763	33.519778
170	1	1	-0.11135717	3.7886077	-1.266485	40.213369
171	1	2	0.37232539	3.3277568	0.038400626	40.037392
172	1	2	-0.22159186	4.0879484	1.0670426	40.441617
173	1	3	-0.065409112	5.7957078	0.76959752	41.254279
174	1	2	-0.0090465475	3.6181366	2.4556841	40.266927
175	1	4	0.21256295	4.2647154	3.2599736	40.594041
176	1	2	-0.25849146	2.4124805	2.7237135	39.720039
177	1	5	0.020430705	1.9689055	4.1881797	39.53785
178	1	2	-0.25849146	2.134886	4.954957	40.865054
179	1	2	0.044446037	1.6079939	4.4456147	42.000091
180	1	4	0.21256295	1.0867763	3.4960726	41.983843
181	1	2	-0.28644643	1.7253746	5.155521	43.291382
182	1	3	-0.074333269	0.96422434	4.3182413	44.838582
183	1	2	0.59814965	2.352186	6.346589	43.348043
184	1	8	-0.63618023	2.4899657	7.0533098	44.545018
185	1	9	0.43444737	2.1343383	6.7195804	45.430738
186	1	2	-0.2864464	2.912084	6.9330518	42.110815
187	1	3	-0.074333269	3.7892079	8.6324447	42.168142
188	1	2	0.044446096	2.8082493	6.2845539	40.943888
189	1	4	0.21256292	3.2252962	6.7510308	40.062833
190	1	5	-0.12960032	2.8233821	4.7841984	38.393348
191	1	6	0.090102841	2.4703253	5.8007451	38.114827
192	1	6	0.090102841	3.893895	4.8426946	38.681948
193	1	6	0.090102841	2.7492184	4.1475705	37.484904
194	1	5	-0.12960032	0.48360499	4.3154792	39.12153
195	1	6	0.090102841	0.17934642	5.3843242	39.094733
196	1	6	0.090102841	-0.18059152	3.7900602	39.841015
197	1	6	0.090102841	0.31356226	3.8985842	38.105027
198	1	2	-0.0090464954	1.5837017	1.5712094	39.256435
199	1	4	0.21256295	0.62321937	1.7312986	38.788494
200	1	2	-0.22159195	2.0094925	0.30964823	39.408437
201	1	3	-0.065409112	0.88949337	-1.118923	38.793035
202	2	2	0.46994716	-3.6144366	-3.1675709	34.273282
203	2	7	-0.54586959	-2.8338428	-3.049216	35.202479
204	2	10	-0.070514801	-3.2014871	-2.5293635	32.693641
205	4	1	-0.11135717	-3.0738772	0.4517122	56.673704
206	4	2	0.37232539	-1.9036249	-0.29100059	56.836591
207	4	2	-0.22159186	-1.9332483	-1.618151	56.646112
208	4	3	-0.065409112	-3.5548302	-2.5076674	56.153107
209	4	2	-0.0090465475	-0.70678387	-2.4216969	56.815287
210	4	4	0.21256295	-0.76559758	-3.4896112	56.641825
211	4	2	-0.25849146	0.46041835	-1.851064	57.183106
212	4	5	0.020430705	1.7217613	-2.7257739	57.329737
213	4	2	-0.25849146	1.4159647	-3.94014	58.227816
214	4	2	0.008085636	0.83837542	-3.7490536	59.434183
215	4	4	0.21256295	0.57372336	-2.7521208	59.763007
216	4	2	-0.22345244	0.5451414	-4.8827317	60.335813
217	4	3	-0.065890092	-0.30480119	-4.4902778	62.008473
218	4	2	0.62412846	0.87401564	-6.1360073	59.968145
219	4	1	-0.43842206	0.61466109	-7.2384002	60.785904
220	4	2	-0.22345247	1.5320064	-6.3622206	58.662769
221	4	3	-0.065890092	2.0222107	-8.1337432	58.13201
222	4	2	0.0080857403	1.7914429	-5.3331813	57.845498
223	4	4	0.21256292	2.277914	-5.5410519	56.904285
224	4	5	-0.12960032	2.1615299	-3.1332332	55.902991
225	4	6	0.090102841	3.1419028	-3.657824	55.917401
226	4	6	0.090102841	1.4072862	-3.7948185	55.425376
227	4	6	0.090102841	2.2790341	-2.2320762	55.262103
228	4	5	-0.12960032	2.9037111	-1.9644778	57.977778
229	4	6	0.090102841	3.7578829	-2.6551348	58.153757
230	4	6	0.090102841	2.6102609	-1.5303118	58.957504
231	4	6	0.090102841	3.2681351	-1.1481	57.318233
232	4	2	-0.0090464954	0.48442368	-0.37012188	57.372859
233	4	4	0.21256295	1.3980515	0.13919093	57.641689
234	4	2	-0.22159195	-0.62525109	0.36372137	57.214941
235	4	3	-0.065409112	-0.518896	2.2588799	57.479616
236	5	2	0.62883776	0.15331669	-7.1635332	61.724342
237	5	7	-0.47732094	0.37707633	-8.0009985	62.582734
238	1	1	-0.11135717	-3.1041619	1.4535771	56.80683
239	1	2	0.37232539	-2.3743356	2.0983961	57.805649
240	1	2	-0.22159186	-2.4571838	3.4317114	57.927302
241	1	3	-0.065409112	-3.563409	4.4608363	56.751502
242	1	2	-0.0090465475	-1.6913531	4.134118	58.975964
243	1	4	0.21256295	-1.7934115	5.2092296	59.051251
244	1	2	-0.25849146	-0.8782008	3.4613042	59.818958
245	1	5	0.020430705	-0.11185525	4.2308616	60.912168
246	1	2	-0.25849146	0.63828469	5.4232085	60.285616
247	1	2	0.044446037	1.4337813	5.2213085	59.212408
248	1	4	0.21256295	1.5321243	4.2320218	58.782056
249	1	2	-0.28644643	2.1874343	6.3309174	58.591156
250	1	3	-0.074333269	3.2588021	5.9268917	57.053903
251	1	2	0.59814965	2.103226	7.5719504	59.108352
252	1	8	-0.63618023	2.7945571	8.6520972	58.554702
253	1	9	0.43444737	3.3914663	8.5715822	57.742566
254	1	2	-0.2864464	1.2583509	7.8073521	60.29954
255	1	3	-0.074333269	1.141084	9.5592622	61.059559
256	1	2	0.044446096	0.5731212	6.8006722	60.856412
257	1	4	0.21256292	-0.027079006	7.014287	61.729289
258	1	5	-0.12960032	-1.1495894	4.6695901	61.973242
259	1	6	0.090102841	-0.65282046	5.1179996	62.860789
260	1	6	0.090102841	-1.8653668	5.4065138	61.552153
261	1	6	0.090102841	-1.7326738	3.7921062	62.328347
262	1	5	-0.12960032	0.9436671	3.3560422	61.630645
263	1	6	0.090102841	1.5373634	3.9711055	62.341238
264	1	6	0.090102841	1.6489448	2.9003577	60.90276
265	1	6	0.090102841	0.4612497	2.5456047	62.219251
266	1	2	-0.0090464954	-0.80913717	1.9754867	59.686121
267	1	4	0.21256295	-0.19453604	1.3869665	60.351728
268	1	2	-0.22159195	-1.5072184	1.3340998	58.738891
269	1	3	-0.065409112	-1.3653896	-0.57405959	58.625992
270	2	2	0.46994716	-0.52299108	-6.3420754	61.932178
271	2	7	-0.54586959	-0.67936177	-5.4584014	61.106702
272	2	10	-0.070514801	-1.3928647	-6.2859867	63.453123
273	4	1	-0.11135717	-2.9807027	2.4540923	79.258368
274	4	2	0.37232539	-2.3771478	1.3104859	79.783278
275	4	2	-0.22159186	-2.1952561	1.2101296	81.108167
276	4	3	-0.065409112	-2.7520565	2.6100757	82.288822
277	4	2	-0.0090465475	-1.5571998	0.0096325293	81.682808
278	4	4	0.21256295	-1.4371112	-0.041959143	82.758404
279	4	2	-0.25849146	-1.1250226	-0.99940216	80.896458
280	4	5	0.020430705	-0.48112486	-2.2435502	81.540737
281	4	2	-0.25849146	0.63258348	-1.8124128	82.514655
282	4	2	0.008085636	1.5900097	-0.95588698	82.096153
283	4	4	0.21256295	1.567378	-0.55850188	81.089369
284	4	2	-0.22345244	2.6873879	-0.53097612	82.990224
285	4	3	-0.065890092	3.9693462	0.71232433	82.293804
286	4	2	0.62412846	2.757903	-1.0160583	84.24472
287	4	1	-0.43842206	3.7750833	-0.64178182	85.125927
288	4	2	-0.22345247	1.7341961	-1.9761144	84.712103
289	4	3	-0.065890092	1.8288179	-2.6889599	86.485009
290	4	2	0.0080857403	0.73776126	-2.3550092	83.901104
291	4	4	0.21256292	0.014536452	-3.0617539	84.279527
292	4	5	-0.12960032	-1.6143631	-3.0320814	82.240034
293	4	6	0.090102841	-1.250179	-4.0126993	82.617251
294	4	6	0.090102841	-2.0377332	-2.4551629	83.090102
295	4	6	0.090102841	-2.439812	-3.2398841	81.524436
296	4	5	-0.12960032	0.16427016	-3.1887571	80.498344
297	4	6	0.090102841	0.69939745	-4.0194522	81.009392
298	4	6	0.090102841	0.90157889	-2.6457653	79.86905
299	4	6	0.090102841	-0.60344021	-3.6457893	79.838027
300	4	2	-0.0090464954	-1.3512743	-0.8840119	79.424974
301	4	4	0.21256295	-1.0481958	-1.6743556	78.754239
302	4	2	-0.22159195	-1.9350065	0.20145703	78.899754
303	4	3	-0.065409112	-2.1881795	0.28092148	77.001708
304	5	2	0.62883776	4.5377324	0.031503745	84.872625
305	5	7	-0.47732094	5.6211761	-0.036344512	85.429222
306	1	1	-0.11135717	-3.1390627	2.5783934	78.267487
307	1	2	0.37232539	-2.2273575	2.1469104	77.303799
308	1	2	-0.22159186	-2.4991025	2.3405101	76.004543
309	1	3	-0.065409112	-4.1183562	3.2015068	75.454963
310	1	2	-0.0090465475	-1.54901	1.8895105	74.96845
311	1	4	0.21256295	-1.7969176	2.0744323	73.931004
312	1	2	-0.25849146	-0.4018438	1.2569066	75.297623
313	1	5	0.020430705	0.57157988	0.82016534	74.185726
314	1	2	-0.25849146	-0.18815503	0.020706131	73.108397
315	1	2	0.044446037	-0.971985	-1.0164462	73.476199
316	1	4	0.21256295	-1.0815811	-1.27599	74.522234
317	1	2	-0.28644643	-1.7031474	-1.8233124	72.476426
318	1	3	-0.074333269	-2.8084543	-3.2501695	73.121862
319	1	2	0.59814965	-1.5787052	-1.5410397	71.165097
320	1	8	-0.63618023	-2.2514003	-2.2734073	70.184126
321	1	9	0.43444737	-2.8655888	-3.0487546	70.393784
322	1	2	-0.2864464	-0.70384293	-0.42607461	70.741274
323	1	3	-0.074333269	-0.49977879	-0.022111069	68.882312
324	1	2	0.044446096	-0.047149083	0.30579597	71.650213
325	1	4	0.21256292	0.58653599	1.1070927	71.297858
326	1	5	-0.12960032	1.2277575	2.1043972	73.624092
327	1	6	0.090102841	2.0404805	1.8602437	72.906136
328	1	6	0.090102841	0.47899898	2.7460578	73.113854
329	1	6	0.090102841	1.6809488	2.6978617	74.447792
330	1	5	-0.12960032	1.7086421	-0.089638486	74.710122
331	1	6	0.090102841	2.3296877	-0.45891445	73.865339
332	1	6	0.090102841	1.2998845	-0.9740262	75.244591
333	1	6	0.090102841	2.3834222	0.46548011	75.397514
334	1	2	-0.0090464954	-0.10133744	1.0643639	76.74769
335	1	4	0.21256295	0.81450841	0.5878555	77.065949
336	1	2	-0.22159195	-0.958946	1.4774362	77.690991
337	1	3	-0.065409112	-0.50776052	1.192232	79.531921
338	2	2	0.46994716	4.3637478	0.78845537	84.116229
339	2	7	-0.54586959	3.3125454	0.8016404	83.498539
340	2	10	-0.070514801	5.5921884	1.9939933	83.783494
341	4	1	-0.11135717	2.1750447	22.840658	-0.68597299
342	4	2	0.37232539	2.2630692	21.475007	-0.41230232
343	4	2	-0.22159186	3.1186648	20.71613	-1.1126945
344	4	3	-0.065409112	4.2209153	21.477839	-2.4796851
345	4	2	-0.0090465475	3.2253121	19.269531	-0.83974981
346	4	4	0.21256295	3.9356173	18.689892	-1.4172216
347	4	2	-0.25849146	2.4572601	18.674168	0.097753616
348	4	5	0.020430705	2.6151423	17.163473	0.36323259
349	4	2	-0.25849146	2.5329748	16.386487	-0.96503024
350	4	2	0.008085636	1.4967684	16.606625	-1.8036366
351	4	4	0.21256295	0.73715201	17.337088	-1.5557503
352	4	2	-0.22345244	1.3678617	15.870044	-3.0783842
353	4	3	-0.065890092	-0.12848263	16.291104	-4.1999344
354	4	2	0.62412846	2.2848182	14.942341	-3.4139383
355	4	1	-0.43842206	2.2056117	14.222975	-4.60872
356	4	2	-0.22345247	3.4116394	14.667795	-2.4957725
357	4	3	-0.065890092	4.7135888	13.34088	-2.948013
358	4	2	0.0080857403	3.5286177	15.341014	-1.3437072
359	4	4	0.21256292	4.3627346	15.106197	-0.69961389
360	4	5	-0.12960032	3.9687012	16.967585	1.0874784
361	4	6	0.090102841	4.094447	15.917297	1.4304335
362	4	6	0.090102841	4.8196414	17.232969	0.42402817
363	4	6	0.090102841	4.0232389	17.617451	1.9882157
364	4	5	-0.12960032	1.509686	16.601864	1.2901066
365	4	6	0.090102841	1.6031853	15.496743	1.3770099
366	4	6	0.090102841	0.49866228	16.826845	0.88799925
367	4	6	0.090102841	1.5900194	17.022821	2.3151033
368	4	2	-0.0090464954	1.5229751	19.533705	0.88393306
369	4	4	0.21256295	0.90523751	19.112036	1.6630223
370	4	2	-0.22159195	1.4270236	20.848119	0.64320128
371	4	3	-0.065409112	0.20257792	21.886852	1.6895075
372	5	2	0.62883776	1.4396191	14.356808	-5.3118935
373	5	7	-0.47732094	1.1215812	13.438855	-6.0497732
374	1	1	-0.11135717	1.5454065	23.45493	-0.18737692
375	1	2	0.37232539	0.26743479	23.057603	0.20631984
376	1	2	-0.22159186	-0.51786486	23.921085	0.86745214
377	1	3	-0.065409112	0.089554241	25.690048	1.2762902
378	1	2	-0.0090465475	-1.8727833	23.520153	1.2952548
379	1	4	0.21256295	-2.4819257	24.248325	1.8155054
380	1	2	-0.25849146	-2.3448947	22.277954	1.0532147
381	1	5	0.020430705	-3.7723812	21.906809	1.4994737
382	1	2	-0.25849146	-3.9688212	22.2721	2.9843787
383	1	2	0.044446037	-3.069239	21.850055	3.8997928
384	1	4	0.21256295	-2.2051189	21.273282	3.5928867
385	1	2	-0.28644643	-3.2275492	22.15952	5.3365768
386	1	3	-0.074333269	-1.8698128	21.532901	6.5357907
387	1	2	0.59814965	-4.2978686	22.860454	5.7583039
388	1	8	-0.63618023	-4.4891964	23.17902	7.1048159
389	1	9	0.43444737	-3.8453797	22.908635	7.8360744
390	1	2	-0.2864464	-5.307484	23.308105	4.774209
391	1	3	-0.074333269	-6.8438322	24.288409	5.3566231
392	1	2	0.044446096	-5.1579647	23.030239	3.4728694
393	1	4	0.21256292	-5.9218072	23.370187	2.7882035
394	1	5	-0.12960032	-4.7516325	22.657826	0.56550714
395	1	6	0.090102841	-5.8014328	22.337818	0.74187128
396	1	6	0.090102841	-4.6818027	23.756126	0.71237752
397	1	6	0.090102841	-4.5134817	22.44005	-0.49841159
398	1	5	-0.12960032	-4.0678416	20.393883	1.3601755
399	1	6	0.090102841	-5.0686999	20.154621	1.7806007
400	1	6	0.090102841	-3.3146155	19.786588	1.9067318
401	1	6	0.090102841	-4.0752212	20.081997	0.29309286
402	1	2	-0.0090464954	-1.4688647	21.332008	0.29967115
403	1	4	0.21256295	-1.8080196	20.335402	0.057033689
404	1	2	-0.22159195	-0.24052541	21.694455	-0.094985913
405	1	3	-0.065409112	0.82857355	20.425302	-1.054263
406	2	2	0.46994716	0.93010013	15.311064	-5.3837859
407	2	7	-0.54586959	1.1870475	16.199831	-4.5895492
408	2	10	-0.070514801	-0.26053117	15.576531	-6.6427637
409	4	1	-0.11135717	3.5440168	18.05263	19.783056
410	4	2	0.37232539	2.2663013	17.958516	20.336437
411	4	2	-0.22159186	1.693214	16.753523	20.470791
412	4	3	-0.065409112	2.6014779	15.162302	19.91681
413	4	2	-0.0090465475	0.34183399	16.632916	21.051951
414	4	4	0.21256295	-0.084974663	15.642451	21.155885
415	4	2	-0.25849146	-0.35456615	17.722713	21.440078
416	4	5	0.020430705	-1.7557615	17.549016	22.059823
417	4	2	-0.25849146	-2.6240675	16.657605	21.150883
418	4	2	0.008085636	-2.728849	16.94773	19.835477
419	4	4	0.21256295	-2.1926335	17.789387	19.415802
420	4	2	-0.22345244	-3.5657466	16.131637	18.931184
421	4	3	-0.065890092	-3.6108247	16.622287	17.078768
422	4	2	0.62412846	-4.2600747	15.085941	19.419514
423	4	1	-0.43842206	-5.0622014	14.285139	18.603074
424	4	2	-0.22345247	-4.179644	14.769228	20.862203
425	4	3	-0.065890092	-5.1731001	13.298366	21.576283
426	4	2	0.0080857403	-3.4158994	15.507519	21.678158
427	4	4	0.21256292	-3.389486	15.245951	22.725359
428	4	5	-0.12960032	-1.5574985	16.948735	23.472403
429	4	6	0.090102841	-2.5161109	16.915981	24.035007
430	4	6	0.090102841	-1.1393765	15.920819	23.415325
431	4	6	0.090102841	-0.85015238	17.572158	24.062007
432	4	5	-0.12960032	-2.5037073	18.893684	22.230056
433	4	6	0.090102841	-3.5420189	18.715493	22.587466
434	4	6	0.090102841	-2.5656215	19.441405	21.265356
435	4	6	0.090102841	-2.0020615	19.542506	22.979495
436	4	2	-0.0090464954	0.30261646	19.056571	21.303306
437	4	4	0.21256295	-0.20041257	19.957319	21.622681
438	4	2	-0.22159195	1.5312795	19.170033	20.781429
439	4	3	-0.065409112	2.3089456	20.915376	20.633093
440	5	2	0.62883776	-5.1736773	14.442721	17.572613
441	5	7	-0.47732094	-6.1932448	14.083412	17.007252
442	1	1	-0.11135717	4.0184472	18.936933	19.659377
443	1	2	0.37232539	3.3475561	20.09973	19.280052
444	1	2	-0.22159186	4.0362108	21.241762	19.135447
445	1	3	-0.065409112	5.9254519	21.297643	19.440375
446	1	2	-0.0090465475	3.3453198	22.484127	18.736996
447	1	4	0.21256295	3.9364518	23.383234	18.618176
448	1	2	-0.25849146	2.010696	22.508041	18.530259
449	1	5	0.020430705	1.3320036	23.821644	18.096165
450	1	2	-0.25849146	1.7451442	24.963674	19.045928
451	1	2	0.044446037	1.626702	24.796442	20.381353
452	1	4	0.21256295	1.2604873	23.860504	20.785667
453	1	2	-0.28644643	1.9918025	25.870852	21.32873
454	1	3	-0.074333269	1.8097015	25.50461	23.201407
455	1	2	0.59814965	2.4354344	27.05445	20.862862
456	1	8	-0.63618023	2.7945578	28.098221	21.718874
457	1	9	0.43444737	2.74596	28.031311	22.726599
458	1	2	-0.2864464	2.546396	27.265699	19.402993
459	1	3	-0.074333269	3.156559	28.946356	18.722067
460	1	2	0.044446096	2.2195736	26.288263	18.548091
461	1	4	0.21256292	2.309134	26.486134	17.489501
462	1	5	-0.12960032	1.7472561	24.085976	16.628873
463	1	6	0.090102841	1.1915444	24.949111	16.202526
464	1	6	0.090102841	2.8364594	24.286771	16.551234
465	1	6	0.090102841	1.5177824	23.200078	15.997531
466	1	5	-0.12960032	-0.21302064	23.73647	18.132091
467	1	6	0.090102841	-0.66074786	24.728561	17.906221
468	1	6	0.090102841	-0.57363333	23.420137	19.134474
469	1	6	0.090102841	-0.5943337	23.021534	17.370868
470	1	2	-0.0090464954	1.2580191	21.226465	18.675545
471	1	4	0.21256295	0.193504	21.184877	18.496098
472	1	2	-0.22159195	1.8828717	20.095699	19.031729
473	1	3	-0.065409112	0.85055403	18.489773	19.202771
474	2	2	0.46994716	-4.3828428	14.924728	17.009025
475	2	7	-0.54586959	-3.4024454	15.361866	17.587362
476	2	10	-0.070514801	-4.5127714	15.073118	15.26713
477	4	1	-0.11135717	1.1394558	22.668646	37.126539
478	4	2	0.37232539	0.054592961	21.828452	37.381082
479	4	2	-0.22159186	-1.1756245	22.352643	37.482453
480	4	3	-0.065409112	-1.4654969	24.234011	37.28183
481	4	2	-0.0090465475	-2.335756	21.481238	37.753135
482	4	4	0.21256295	-3.3161894	21.938041	37.816933
483	4	2	-0.25849146	-2.1881162	20.150116	37.925155
484	4	5	0.020430705	-3.4300956	19.274676	38.187255
485	4	2	-0.25849146	-4.2587005	19.872417	39.340884
486	4	2	0.008085636	-3.6517426	20.18172	40.507666
487	4	4	0.21256295	-2.5867355	20.029266	40.628325
488	4	2	-0.22345244	-4.411028	20.738678	41.646715
489	4	3	-0.065890092	-3.435089	21.167634	43.239748
490	4	2	0.62412846	-5.7402374	20.927916	41.539807
491	4	1	-0.43842206	-6.4988297	21.45333	42.588493
492	4	2	-0.22345247	-6.4270617	20.569603	40.279642
493	4	3	-0.065890092	-8.3173989	20.815086	40.11636
494	4	2	0.0080857403	-5.7351311	20.070134	39.247206
495	4	4	0.21256292	-6.2755789	19.816555	38.347562
496	4	5	-0.12960032	-4.2217869	19.198605	36.859677
497	4	6	0.090102841	-5.0637636	18.47594	36.932917
498	4	6	0.090102841	-4.6266425	20.194195	36.577564
499	4	6	0.090102841	-3.5612958	18.85297	36.0345
500	4	5	-0.12960032	-3.0642326	17.825566	38.590687
501	4	6	0.090102841	-3.9809361	17.257685	38.864094
502	4	6	0.090102841	-2.3833813	17.815012	39.468643
503	4	6	0.090102841	-2.5767443	17.283988	37.752042
504	4	2	-0.0090464954	-0.81604282	19.57653	37.790301
505	4	4	0.21256295	-0.64692197	18.514803	37.892869
506	4	2	-0.22159195	0.23894224	20.363165	37.539198
507	4	3	-0.065409112	1.9703593	19.556299	37.383789
508	5	2	0.62883776	-6.0892704	21.731313	43.512666
509	5	7	-0.47732094	-6.780662	21.710099	44.517545
510	1	1	-0.11135717	2.0859615	22.323049	37.042495
511	1	2	0.37232539	2.5783368	21.288058	37.837754
512	1	2	-0.22159186	3.8439512	20.874741	37.674102
513	1	3	-0.065409112	4.9833852	21.685907	36.366801
514	1	2	-0.0090465475	4.3841642	19.77945	38.503603
515	1	4	0.21256295	5.4138015	19.481775	38.351334
516	1	2	-0.25849146	3.6188719	19.156213	39.425794
517	1	5	0.020430705	4.2279704	18.030757	40.284259
518	1	2	-0.25849146	4.9187874	16.994203	39.375801
519	1	2	0.044446037	4.2442445	16.46971	38.329259
520	1	4	0.21256295	3.2302851	16.786602	38.117061
521	1	2	-0.28644643	4.8594429	15.458634	37.443574
522	1	3	-0.074333269	3.8143144	14.811209	35.972942
523	1	2	0.59814965	6.112679	15.027815	37.685524
524	1	8	-0.63618023	6.7365798	14.076081	36.875503
525	1	9	0.43444737	6.2937625	13.658172	36.068278
526	1	2	-0.2864464	6.857391	15.570711	38.842601
527	1	3	-0.074333269	8.6312993	14.957155	39.213233
528	1	2	0.044446096	6.2986037	16.490253	39.639625
529	1	4	0.21256292	6.8746254	16.855956	40.477627
530	1	5	-0.12960032	5.2065266	18.696806	41.281285
531	1	6	0.090102841	5.587617	17.961861	42.023051
532	1	6	0.090102841	6.0694176	19.152111	40.751355
533	1	6	0.090102841	4.6907259	19.50218	41.848195
534	1	5	-0.12960032	3.1657431	17.271277	41.115228
535	1	6	0.090102841	3.6303022	16.410438	41.643301
536	1	6	0.090102841	2.35621	16.8755	40.464922
537	1	6	0.090102841	2.7151375	17.929196	41.889883
538	1	2	-0.0090464954	2.2177068	19.637976	39.612099
539	1	4	0.21256295	1.5716347	19.191652	40.354062
540	1	2	-0.22159195	1.7258221	20.63564	38.864667
541	1	3	-0.065409112	-0.083172708	21.197645	39.157279
542	2	2	0.46994716	-5.0513171	22.03802	43.575629
543	2	7	-0.54586959	-4.3372402	21.976142	42.589218
544	2	10	-0.070514801	-4.4010991	22.624817	45.094177
545	4	1	-0.11135717	3.0554938	17.272429	59.334112
546	4	2	0.37232539	2.217588	17.885354	58.401438
547	4	2	-0.22159186	2.7498868	18.448505	57.306903
548	4	3	-0.065409112	4.6397817	18.422716	57.004491
549	4	2	-0.0090465475	1.8809633	19.103314	56.309547
550	4	4	0.21256295	2.3447887	19.537451	55.431835
551	4	2	-0.25849146	0.54332837	19.170703	56.481203