Title

92 atoms
95 bonds
166 angles
219 dihedrals
78 impropers

9 atom types
13 bond types
6 angle types
9 dihedral types
2 improper types
-8.809000015 91.19099998 xlo xhi
-3.387000084 96.61299992 ylo yhi
-3.948999882 96.05100012 zlo zhi
0.0 0.0 0.0 xy xz yz

Masses

1	15.99943
2	12.01078
3	12.01078
4	1.007947
5	1.007947
6	15.99943
7	15.99943
8	1.007947
9	35.4532


Pair Coeffs

1	0.16846514	3.0251065
2	0.086879315	3.4806469
3	0.10884061	3.3795318
4	0.015779483	2.6445434
5	0.015611343	2.5725815
6	0.2102061	3.0398122
7	0.20947353	2.99716
8	1.2326e-05	0.53453923
9	0.2656001	3.3075278

Bond Coeffs

1 harmonic	425.69104206635	1.362945806494
2 harmonic	300.03137914615	1.451203938761
3 harmonic	360.7852444772	1.387193227181
4 harmonic	289.73813263395	1.498646816465
5 harmonic	370.04670688625	1.093899492634
6 harmonic	397.2545789619	1.085358495916
7 harmonic	264.62148576755	1.52190126495
8 harmonic	301.15400723785	1.345741232799
9 harmonic	582.698766451	1.225198386222
10 harmonic	279.1350963404	1.454628925034
11 harmonic	385.7604595587	1.369745182308
12 harmonic	543.5267831885	0.9716763312559
13 harmonic	218.0227703685	1.746066037062


Angle Coeffs

1 harmonic	57.8982893754	126.8062420451
2 harmonic	65.09061609600001	110.3538806181
3 harmonic	53.20531626545	116.5475862634
4 harmonic	34.066775159195	129.1835929926
5 harmonic	48.776492647595	115.6030999533
6 harmonic	201.41175231035	127.4691416191


Dihedral Coeffs

1 fourier 1	3.661930099076	2	180
2 fourier 1	1.532232714475	2	180
3 fourier 1	0.457973137376	1	0
4 fourier 1	0.02664938770063	3	0
5 fourier 1	0.1155372516788	3	0
6 fourier 1	2.779853741805	2	180
7 fourier 1	0.9974165607242	2	180
8 fourier 1	0.1040663847541	3	0
9 fourier 1	0.8283030590042	2	180


Improper Coeffs

1 0.3666666666666667	-1	2
2 3.5	-1	2


Atoms

1	1	1	0.015786	-4.6729999	1.64	-0.62800002
2	1	2	-0.050138999	-3.556	0.93699998	-0.163
3	1	2	-0.018201999	-3.336	0.73799998	1.1569999
4	1	3	-0.135373	-4.2870002	1.2539999	2.2019999
5	1	4	0.101387	-3.9489999	0.98799998	3.2249999
6	1	4	0.101387	-5.2940001	0.81099999	2.05
7	1	4	0.101387	-4.3520002	2.3610001	2.141
8	1	2	-0.27722999	-2.1259999	-0.0020000001	1.595
9	1	5	0.218501	-1.995	-0.16	2.655
10	1	2	-0.18850601	-1.2180001	-0.45300001	0.70300001
11	1	3	0.007125	0.044	-1.2410001	1.105
12	1	2	-0.18850601	1.257	-0.66299999	0.352
13	1	2	-0.271016	2.1760001	-1.431	-0.273
14	1	5	0.218501	2.089	-2.507	-0.28799999
15	1	2	-0.018608	3.339	-0.82700002	-0.97100002
16	1	3	-0.131822	4.3039999	-1.733	-1.687
17	1	4	0.101387	5.322	-1.615	-1.26
18	1	4	0.101387	4.013	-2.799	-1.5829999
19	1	4	0.101387	4.3210001	-1.488	-2.77
20	1	2	0.16325399	3.5050001	0.51499999	-0.95599997
21	1	1	-0.38173801	4.5749998	1.135	-1.61
22	1	2	-0.018608	2.533	1.368	-0.229
23	1	3	-0.131822	2.71	2.8610001	-0.222
24	1	4	0.101387	2.4119999	3.2720001	-1.209
25	1	4	0.101387	2.0940001	3.3440001	0.56800002
26	1	4	0.101387	3.7720001	3.118	-0.027000001
27	1	2	-0.271016	1.473	0.80900002	0.37599999
28	1	5	0.218501	0.75700003	1.437	0.89300001
29	1	3	-0.129334	0.373	-1.149	2.615
30	1	4	0.090806998	0.44400001	-0.089000002	2.9430001
31	1	4	0.090806998	1.349	-1.638	2.829
32	1	4	0.090806998	-0.39399999	-1.666	3.23
33	1	3	-0.129334	-0.237	-2.7279999	0.77499998
34	1	4	0.090806998	0.57300001	-3.3870001	1.156
35	1	4	0.090806998	-0.33899999	-2.8800001	-0.32100001
36	1	4	0.090806998	-1.183	-3.0580001	1.256
37	1	2	-0.27722999	-1.493	-0.243	-0.74400002
38	1	5	0.218501	-0.78600001	-0.62	-1.474
39	1	2	-0.018201999	-2.595	0.40099999	-1.158
40	1	3	-0.135373	-2.8329999	0.63200003	-2.625
41	1	4	0.101387	-3.898	0.43900001	-2.8729999
42	1	4	0.101387	-2.5869999	1.6849999	-2.8759999
43	1	4	0.101387	-2.211	-0.041000001	-3.253
44	1	2	0.63108599	5.3070002	0.61400002	-2.1500001
45	1	6	-0.47423801	5.7740002	-0.419	-1.702
46	1	1	0.015786	-5.3759999	2.0409999	-0.021
47	1	2	-0.050138999	-5.079	2.744	1.152
48	1	2	-0.018201999	-3.8050001	2.944	1.562
49	1	3	-0.135373	-2.632	2.427	0.77399999
50	1	4	0.101387	-1.67	2.694	1.258
51	1	4	0.101387	-2.6359999	2.8710001	-0.245
52	1	4	0.101387	-2.6830001	1.3200001	0.70099998
53	1	2	-0.27722999	-3.549	3.6830001	2.8239999
54	1	5	0.218501	-2.5190001	3.842	3.108
55	1	2	-0.18850601	-4.5640001	4.1350002	3.5910001
56	1	3	0.007125	-4.3499999	4.9229999	4.8979998
57	1	2	-0.18850601	-5.2729998	4.3449998	5.9879999
58	1	2	-0.234153	-6.026	5.1129999	6.8060002
59	1	5	0.218501	-6.0279999	6.1880002	6.717
60	1	2	-0.216382	-6.8860002	4.5089998	7.8540001
61	1	3	-0.117211	-7.7350001	5.415	8.7049999
62	1	4	0.101387	-7.4619999	5.296	9.7740002
63	1	4	0.101387	-7.5900002	6.4809999	8.4309998
64	1	4	0.101387	-8.809	5.1700001	8.5629997
65	1	2	0.13101099	-6.8959999	3.1670001	8.0200005
66	1	7	-0.61611402	-7.6989999	2.546	8.9829998
67	1	8	0.442994	-8.3179998	3.05	9.6059999
68	1	2	-0.216382	-6.0339999	2.313	7.1659999
69	1	3	-0.117211	-6.053	0.81999999	7.3410001
70	1	4	0.101387	-6.9860001	0.41	6.9029999
71	1	4	0.101387	-5.1820002	0.33700001	6.848
72	1	4	0.101387	-6.0149999	0.56400001	8.4209995
73	1	2	-0.234153	-5.2810001	2.872	6.2049999
74	1	5	0.218501	-4.665	2.2449999	5.573
75	1	3	-0.129334	-2.905	4.8299999	5.4450002
76	1	4	0.090806998	-2.5899999	3.7709999	5.5619998
77	1	4	0.090806998	-2.836	5.3200002	6.441
78	1	4	0.090806998	-2.1849999	5.348	4.7750001
79	1	3	-0.129334	-4.6360002	6.4089999	4.572
80	1	4	0.090806998	-4.3769999	7.0679998	5.4289999
81	1	4	0.090806998	-5.7059999	6.5609999	4.3109999
82	1	4	0.090806998	-4.0219998	6.7399998	3.7060001
83	1	2	-0.27722999	-5.9559999	3.925	3.1070001
84	1	5	0.218501	-6.7810001	4.302	3.7
85	1	2	-0.018201999	-6.204	3.2809999	1.956
86	1	3	-0.135373	-7.6199999	3.049	1.507
87	1	4	0.101387	-7.7090001	3.243	0.417
88	1	4	0.101387	-7.9039998	1.9960001	1.7130001
89	1	4	0.101387	-8.3330002	3.7219999	2.03
90	1	2	0.47033599	5.6490002	0.99400002	-3.1059999
91	1	6	-0.54166001	5.1199999	1.977	-3.596
92	1	9	-0.068503998	6.9619999	0.193	-3.9489999

Bonds

1	1	1	2
2	2	1	46
3	3	2	3
4	3	2	39
5	4	3	4
6	3	3	8
7	5	4	5
8	5	4	6
9	5	4	7
10	6	8	9
11	3	8	10
12	4	10	11
13	3	10	37
14	4	11	12
15	7	11	29
16	7	11	33
17	3	12	13
18	3	12	27
19	6	13	14
20	3	13	15
21	4	15	16
22	3	15	20
23	5	16	17
24	5	16	18
25	5	16	19
26	1	20	21
27	3	20	22
28	8	21	44
29	4	22	23
30	3	22	27
31	5	23	24
32	5	23	25
33	5	23	26
34	6	27	28
35	5	29	30
36	5	29	31
37	5	29	32
38	5	33	34
39	5	33	35
40	5	33	36
41	6	37	38
42	3	37	39
43	4	39	40
44	5	40	41
45	5	40	42
46	5	40	43
47	9	44	45
48	10	44	90
49	1	46	47
50	3	47	48
51	3	47	85
52	4	48	49
53	3	48	53
54	5	49	50
55	5	49	51
56	5	49	52
57	6	53	54
58	3	53	55
59	4	55	56
60	3	55	83
61	4	56	57
62	7	56	75
63	7	56	79
64	3	57	58
65	3	57	73
66	6	58	59
67	3	58	60
68	4	60	61
69	3	60	65
70	5	61	62
71	5	61	63
72	5	61	64
73	11	65	66
74	3	65	68
75	12	66	67
76	4	68	69
77	3	68	73
78	5	69	70
79	5	69	71
80	5	69	72
81	6	73	74
82	5	75	76
83	5	75	77
84	5	75	78
85	5	79	80
86	5	79	81
87	5	79	82
88	6	83	84
89	3	83	85
90	4	85	86
91	5	86	87
92	5	86	88
93	5	86	89
94	9	90	91
95	13	90	92

Angles

1	5	63	61	64
2	3	15	16	19
3	5	5	4	6
4	1	48	47	85
5	1	21	20	22
6	2	65	66	67
7	5	62	61	64
8	1	37	39	40
9	1	58	60	61
10	1	3	8	10
11	1	57	58	60
12	1	3	2	39
13	4	3	8	9
14	4	59	58	60
15	3	56	79	80
16	5	24	23	25
17	3	56	75	77
18	2	1	46	47
19	5	5	4	7
20	5	80	79	81
21	1	65	68	73
22	1	53	55	56
23	5	70	69	71
24	1	55	83	85
25	1	12	27	22
26	1	66	65	68
27	4	68	73	74
28	1	8	10	37
29	1	65	68	69
30	1	1	2	39
31	3	11	33	35
32	5	34	33	35
33	3	11	29	30
34	1	58	57	73
35	5	35	33	36
36	5	24	23	26
37	3	56	75	78
38	3	22	23	24
39	1	11	12	13
40	3	29	11	33
41	1	60	65	66
42	1	91	90	92
43	3	85	86	88
44	3	3	4	5
45	5	41	40	43
46	1	2	39	40
47	1	69	68	73
48	3	39	40	42
49	1	8	10	11
50	3	10	11	12
51	5	6	4	7
52	1	45	44	90
53	3	55	56	57
54	3	68	69	72
55	3	11	33	36
56	5	25	23	26
57	1	48	53	55
58	6	21	44	45
59	1	2	3	4
60	3	48	49	50
61	1	47	48	53
62	3	22	23	25
63	1	21	44	90
64	4	12	13	14
65	5	31	29	32
66	4	10	37	38
67	3	85	86	89
68	1	13	15	20
69	1	83	85	86
70	5	76	75	77
71	1	15	20	21
72	1	47	48	49
73	5	81	79	82
74	1	13	15	16
75	3	48	49	51
76	1	2	39	37
77	3	60	61	63
78	5	30	29	31
79	5	42	40	43
80	3	56	79	81
81	5	76	75	78
82	1	15	20	22
83	4	84	83	85
84	5	87	86	88
85	5	80	79	82
86	3	55	56	79
87	1	46	47	85
88	5	71	69	72
89	1	47	85	86
90	5	17	16	18
91	5	70	69	72
92	1	11	10	37
93	3	15	16	17
94	5	30	29	32
95	3	56	79	82
96	3	55	56	75
97	1	49	48	53
98	3	60	61	62
99	5	34	33	36
100	3	68	69	70
101	3	11	29	31
102	5	87	86	89
103	5	50	49	51
104	4	12	27	28
105	5	51	49	52
106	2	20	21	44
107	3	10	11	33
108	5	17	16	19
109	3	75	56	79
110	1	46	47	48
111	3	39	40	43
112	2	2	1	46
113	3	15	16	18
114	4	9	8	10
115	4	38	37	39
116	1	53	55	83
117	4	57	73	74
118	4	54	53	55
119	5	62	61	63
120	3	11	29	32
121	3	10	11	29
122	1	47	85	83
123	5	50	49	52
124	1	2	3	8
125	4	57	58	59
126	3	22	23	26
127	1	61	60	65
128	1	60	65	68
129	1	12	13	15
130	1	10	37	39
131	3	12	11	33
132	3	57	56	79
133	3	56	75	76
134	1	58	60	65
135	1	44	90	91
136	5	88	86	89
137	3	3	4	6
138	1	11	12	27
139	3	12	11	29
140	1	20	22	23
141	3	48	49	52
142	3	57	56	75
143	4	55	83	84
144	3	60	61	64
145	1	56	57	58
146	3	11	33	34
147	4	22	27	28
148	1	44	90	92
149	3	85	86	87
150	5	41	40	42
151	3	3	4	7
152	1	56	55	83
153	3	39	40	41
154	1	16	15	20
155	1	4	3	8
156	3	68	69	71
157	1	1	2	3
158	1	23	22	27
159	5	77	75	78
160	4	14	13	15
161	4	48	53	54
162	5	18	16	19
163	1	56	57	73
164	1	13	12	27
165	1	57	73	68
166	1	20	22	27

Dihedrals

1	4	8	10	11	29
2	4	64	61	60	65
3	4	19	16	15	20
4	4	83	85	86	88
5	8	75	56	79	80
6	4	20	22	23	25
7	1	61	60	65	68
8	5	10	11	33	36
9	4	17	16	15	20
10	5	10	11	29	31
11	8	29	11	33	36
12	8	31	29	11	33
13	2	22	20	21	44
14	4	47	48	49	50
15	1	21	20	22	27
16	1	49	48	47	85
17	1	54	53	55	56
18	5	57	56	75	76
19	1	11	12	27	28
20	1	69	68	73	74
21	4	2	3	4	6
22	4	58	60	61	63
23	5	55	56	79	80
24	1	48	53	55	56
25	7	21	44	90	91
26	1	21	20	22	23
27	4	26	23	22	27
28	4	20	22	23	26
29	4	13	15	16	17
30	1	13	12	27	22
31	1	46	47	48	49
32	1	2	39	37	10
33	5	10	11	29	32
34	5	12	11	29	30
35	4	47	48	49	51
36	5	57	56	79	82
37	5	57	56	75	77
38	2	15	20	21	44
39	1	11	10	37	38
40	4	2	3	4	7
41	4	58	60	61	64
42	1	11	12	13	15
43	4	12	11	10	37
44	4	13	12	11	33
45	4	37	39	40	43
46	5	55	56	79	81
47	4	57	56	55	83
48	4	58	60	61	62
49	1	14	13	15	20
50	4	2	39	40	43
51	1	60	58	57	73
52	5	55	56	75	78
53	4	47	85	86	87
54	4	13	15	16	18
55	1	1	2	39	40
56	1	47	85	83	84
57	1	48	47	85	86
58	4	13	12	11	29
59	1	49	48	53	54
60	1	56	57	58	60
61	1	14	13	15	16
62	1	59	58	60	61
63	4	29	11	10	37
64	1	1	2	3	4
65	5	10	11	33	34
66	2	1	46	47	85
67	1	54	53	55	83
68	1	16	15	20	21
69	1	56	57	73	74
70	4	47	85	86	88
71	4	65	68	69	70
72	1	46	47	48	53
73	1	2	3	8	10
74	1	58	60	65	68
75	1	2	3	8	9
76	1	57	73	68	69
77	4	50	49	48	53
78	1	57	58	60	61
79	1	49	48	53	55
80	4	83	85	86	89
81	9	67	66	65	68
82	1	12	27	22	23
83	8	75	56	79	81
84	7	45	44	90	91
85	1	1	2	39	37
86	1	57	73	68	65
87	1	9	8	10	37
88	4	10	11	12	13
89	1	8	10	37	38
90	1	16	15	20	22
91	1	3	2	39	40
92	1	15	13	12	27
93	2	1	46	47	48
94	4	65	68	69	71
95	4	79	56	55	83
96	8	78	75	56	79
97	1	2	39	37	38
98	4	71	69	68	73
99	7	21	44	90	92
100	5	12	11	33	34
101	8	75	56	79	82
102	4	70	69	68	73
103	1	20	22	27	28
104	1	58	57	73	68
105	1	9	8	10	11
106	1	47	85	83	55
107	4	5	4	3	8
108	5	12	11	29	31
109	4	72	69	68	73
110	4	47	48	49	52
111	1	8	10	37	39
112	5	57	56	75	78
113	4	2	3	4	5
114	1	11	10	37	39
115	2	3	2	1	46
116	1	12	27	22	20
117	4	6	4	3	8
118	1	13	12	27	28
119	4	55	56	57	58
120	1	46	47	85	86
121	1	15	20	22	27
122	5	55	56	79	82
123	9	60	65	66	67
124	1	61	60	65	66
125	4	73	57	56	79
126	8	29	11	33	34
127	2	39	2	1	46
128	1	38	37	39	40
129	1	3	2	39	37
130	4	13	15	16	19
131	1	48	53	55	83
132	1	58	60	65	66
133	4	62	61	60	65
134	1	15	20	22	23
135	5	12	11	29	32
136	4	73	57	56	75
137	3	2	1	46	47
138	4	20	22	23	24
139	1	53	55	83	84
140	1	11	12	27	22
141	1	84	83	85	86
142	1	1	2	3	8
143	5	10	11	33	35
144	1	47	48	53	54
145	1	48	47	85	83
146	1	60	65	68	73
147	5	10	11	29	30
148	1	53	48	47	85
149	5	57	56	79	80
150	4	24	23	22	27
151	1	59	58	57	73
152	4	58	57	56	79
153	4	47	85	86	89
154	4	63	61	60	65
155	6	20	21	44	90
156	1	56	55	83	84
157	4	37	39	40	41
158	1	60	65	68	69
159	1	3	8	10	37
160	4	2	39	40	41
161	1	66	65	68	73
162	4	18	16	15	20
163	5	55	56	75	76
164	1	13	15	20	21
165	4	27	12	11	33
166	7	45	44	90	92
167	1	53	55	83	85
168	4	58	57	56	75
169	1	47	48	53	55
170	5	57	56	79	81
171	1	66	65	68	69
172	4	65	68	69	72
173	1	57	58	60	65
174	4	27	12	11	29
175	4	33	11	10	37
176	8	30	29	11	33
177	1	11	12	13	14
178	1	55	83	85	86
179	1	3	8	10	11
180	4	37	39	40	42
181	1	56	55	83	85
182	4	75	56	55	83
183	1	10	37	39	40
184	1	14	13	12	27
185	4	2	39	40	42
186	8	32	29	11	33
187	5	12	11	33	35
188	5	55	56	75	77
189	1	8	3	2	39
190	1	13	15	20	22
191	4	8	10	11	12
192	8	77	75	56	79
193	4	53	55	56	79
194	4	7	4	3	8
195	4	25	23	22	27
196	1	23	22	27	28
197	8	76	75	56	79
198	1	56	57	58	59
199	1	12	13	15	20
200	4	83	85	86	87
201	1	56	57	73	68
202	1	58	57	73	74
203	4	53	55	56	57
204	4	53	55	56	75
205	1	4	3	8	10
206	4	8	10	11	33
207	1	4	3	2	39
208	1	4	3	8	9
209	8	29	11	33	35
210	4	52	49	48	53
211	5	12	11	33	36
212	4	51	49	48	53
213	1	12	13	15	16
214	2	20	21	44	45
215	1	65	68	73	74
216	4	10	11	12	27
217	4	55	56	57	73
218	1	46	47	85	83
219	1	59	58	60	65

Impropers

1	1	3	4	8	2
5	1	39	40	2	37
6	1	12	11	13	27
23	1	73	68	74	57
25	1	15	16	20	13
28	1	83	84	85	55
43	1	22	27	20	23
50	1	15	20	13	16
54	1	13	12	14	15
58	1	47	85	46	48
59	1	83	55	84	85
70	1	60	58	61	65
82	1	73	57	68	74
86	1	20	15	21	22
90	1	10	11	37	8
95	1	10	37	8	11
96	1	65	66	68	60
101	1	8	10	3	9
105	1	53	55	48	54
111	1	20	22	15	21
116	1	27	28	12	22
117	1	57	56	58	73
130	1	90	91	92	44
131	1	37	38	39	10
149	1	37	10	38	39
151	1	68	73	65	69
166	1	85	86	47	83
170	2	44	21	45	90
179	1	22	20	23	27
182	1	53	48	54	55
193	1	83	85	55	84
194	1	39	37	40	2
207	1	27	12	22	28
209	1	57	73	56	58
214	1	8	3	9	10
218	1	12	27	11	13
222	1	47	48	85	46
229	1	12	13	27	11
232	1	53	54	55	48
239	1	13	15	12	14
252	1	55	53	56	83
262	1	85	83	86	47
288	1	48	49	53	47
295	1	2	39	1	3
297	1	2	3	39	1
305	1	48	47	49	53
308	1	60	65	58	61
314	1	3	8	2	4
317	1	90	92	44	91
318	2	44	90	21	45
325	1	55	83	53	56
328	1	65	68	60	66
334	1	10	8	11	37
340	1	47	46	48	85
341	1	60	61	65	58
342	1	57	58	73	56
344	1	39	2	37	40
350	1	20	21	22	15
367	1	58	60	57	59
385	1	90	44	91	92
390	1	55	56	83	53
397	1	13	14	15	12
400	1	58	59	60	57
403	2	44	45	90	21
415	1	2	1	3	39
429	1	58	57	59	60
431	1	3	2	4	8
433	1	27	22	28	12
441	1	8	9	10	3
444	1	65	60	66	68
450	1	85	47	83	86
455	1	22	23	27	20
456	1	73	74	57	68
466	1	68	69	73	65
474	1	37	39	10	38
480	1	48	53	47	49
481	1	68	65	69	73
488	1	15	13	16	20
