Title

99 atoms
98 bonds
185 angles
321 dihedrals
12 impropers

8 atom types
11 bond types
5 angle types
27 dihedral types
2 improper types
-4.046999931 95.95300007 xlo xhi
-1.682999969 98.31700003 ylo yhi
-5.56799984 94.43200016 zlo zhi
0.0 0.0 0.0 xy xz yz

Masses

1	15.99943
2	12.01078
3	1.007947
4	1.007947
5	12.01078
6	15.99943
7	15.99943
8	1.007947


Pair Coeffs

1	0.16846514	3.0251065
2	0.10884061	3.3795318
3	0.016409246	2.5832257
4	0.015779483	2.6445434
5	0.086879315	3.4806469
6	0.2102061	3.0398122
7	0.20947353	2.99716
8	1.2326e-05	0.53453923

Bond Coeffs

1 harmonic	366.7408841747	1.425895053732
2 harmonic	300.03137914615	1.451203938761
3 harmonic	264.62148576755	1.52190126495
4 harmonic	370.04670688625	1.093899492634
5 harmonic	301.15400723785	1.345741232799
6 harmonic	582.698766451	1.225198386222
7 harmonic	329.44145381095	1.523435958334
8 harmonic	279.1350963404	1.454628925034
9 harmonic	329.96998057905	1.427343958716
10 harmonic	543.5267831885	0.9716763312559
11 harmonic	385.7604595587	1.369745182308


Angle Coeffs

1 harmonic	53.20531626545	116.5475862634
2 harmonic	65.09061609600001	110.3538806181
3 harmonic	201.41175231035	127.4691416191
4 harmonic	57.8982893754	126.8062420451
5 harmonic	48.776492647595	115.6030999533


Dihedral Coeffs

1 fourier 1	0.1155372516788	3	0
2 fourier 1	0.1115525666802	3	0
3 fourier 1	0.3432490222662	1	0
4 fourier 1	0.0473758381877	3	0
5 fourier 1	0.457973137376	1	0
6 fourier 1	0.09223874044423	3	0
7 fourier 1	0.3159935921949	2	180
8 fourier 1	0.3247796806857	1	180
9 fourier 1	0.1040663847541	3	0
10 fourier 1	0.1918272375143	3	0
11 fourier 1	0.9202179876409	1	180
12 fourier 1	1.163809172478	2	180
13 fourier 1	0.1679186987369	1	180
14 fourier 1	2.779853741805	2	180
15 fourier 1	0.02664938770063	3	0
16 fourier 1	0.1911926717192	3	0
17 fourier 1	-0.3703352413219	2	0
18 fourier 1	0.4541676554336	1	0
19 fourier 1	0.1489710476446	2	0
20 fourier 1	0.02960027280666	3	180
21 fourier 1	0.9974165607242	2	180
22 fourier 1	0.3445382149273	3	0
23 fourier 1	0.1364556373303	1	0
24 fourier 1	0.3026390167484	3	0
25 fourier 1	2.687457892086	2	180
26 fourier 1	2.772607909663	2	180
27 fourier 1	0.09692684957115	1	0


Improper Coeffs

1 3.5	-1	2
2 0.3666666666666667	-1	2


Atoms

1	1	1	-0.18184499	-3.8510001	0.213	1.086
2	1	2	0.032481	-3.0139999	-0.426	0.162
3	1	2	-0.14747301	-1.5880001	0.119	0.273
4	1	2	-0.14251401	-0.64399999	-0.602	-0.70099998
5	1	2	-0.14373	0.76700002	0.0049999999	-0.71600002
6	1	2	-0.141316	1.551	-0.289	0.574
7	1	2	0.13436501	3.0009999	0.18799999	0.47499999
8	1	1	-0.495657	3.043	1.5829999	0.35100001
9	1	3	0.077032	3.497	-0.28999999	-0.40000001
10	1	3	0.077032	3.5420001	-0.119	1.398
11	1	4	0.084426999	1.0700001	0.21600001	1.439
12	1	4	0.084426999	1.551	-1.3839999	0.76599997
13	1	4	0.080656998	1.318	-0.43200001	-1.577
14	1	4	0.080656998	0.70099998	1.102	-0.88099998
15	1	4	0.080829002	-0.58700001	-1.683	-0.44299999
16	1	4	0.080829002	-1.061	-0.523	-1.729
17	1	4	0.085418001	-1.597	1.2079999	0.046
18	1	4	0.085418001	-1.2359999	-0.023	1.316
19	1	3	0.076606996	-3.013	-1.515	0.384
20	1	3	0.076606996	-3.405	-0.28600001	-0.87300003
21	1	5	0.76050699	4.0489998	1.835	0.28299999
22	1	6	-0.56118399	4.7020001	1.426	-0.66299999
23	1	2	-0.20932899	4.6999998	2.691	1.3279999
24	1	2	-0.116146	3.6949999	3.102	2.414
25	1	2	-0.13681599	4.296	4.0739999	3.4419999
26	1	2	-0.14215501	5.2360001	3.372	4.4380002
27	1	2	-0.14215501	5.9219999	4.3509998	5.408
28	1	2	-0.13947099	4.9689999	5.1360002	6.3280001
29	1	2	-0.097800002	4.1399999	4.2270002	7.2490001
30	1	2	-0.258302	3.3540001	5.0539999	8.2729998
31	1	5	0.51596999	2.529	4.1739998	9.1639996
32	1	6	-0.69642401	1.8380001	4.6700001	10.039
33	1	4	0.112313	4.059	5.6399999	8.9020004
34	1	4	0.112313	2.6789999	5.7600002	7.7420001
35	1	4	0.075400002	3.421	3.638	6.6399999
36	1	4	0.075400002	4.8169999	3.526	7.7849998
37	1	4	0.077076003	5.5910001	5.8109999	6.9559999
38	1	4	0.077076003	4.2969999	5.7839999	5.7270002
39	1	4	0.078947	6.6370001	3.78	6.039
40	1	4	0.078947	6.5209999	5.079	4.8179998
41	1	4	0.078947	4.6799998	2.595	5.0040002
42	1	4	0.078947	6.04	2.8499999	3.8789999
43	1	4	0.077076003	4.835	4.8940001	2.9189999
44	1	4	0.077076003	3.451	4.526	4.0029998
45	1	4	0.084159002	2.8340001	3.6099999	1.925
46	1	4	0.084159002	3.303	2.198	2.931
47	1	4	0.115389	5.1139998	3.599	0.838
48	1	4	0.115389	5.5359998	2.1159999	1.777
49	1	1	-0.18184499	-4.0469999	1.114	0.71700001
50	1	2	0.032481	-2.8110001	1.7539999	0.546
51	1	2	-0.14747301	-2.099	1.209	-0.69499999
52	1	2	-0.142463	-0.76300001	1.9299999	-0.926
53	1	2	-0.138368	0.044	1.323	-2.0840001
54	1	2	-0.169396	-0.57999998	1.6160001	-3.4579999
55	1	2	0.085635997	0.31900001	1.14	-4.5999999
56	1	7	-0.685884	0.44499999	-0.255	-4.5650001
57	1	8	0.376073	1.04	-0.49599999	-5.322
58	1	3	0.066682003	1.321	1.617	-4.5170002
59	1	3	0.066682003	-0.139	1.446	-5.5679998
60	1	4	0.087770998	-1.566	1.1109999	-3.5480001
61	1	4	0.087770998	-0.73900002	2.711	-3.5669999
62	1	4	0.080829002	1.066	1.76	-2.0539999
63	1	4	0.080829002	0.14300001	0.22499999	-1.937
64	1	4	0.080829002	-0.94400001	3.01	-1.118
65	1	4	0.080829002	-0.149	1.851	-0.0020000001
66	1	4	0.085418001	-1.9170001	0.12	-0.56
67	1	4	0.085418001	-2.7639999	1.35	-1.574
68	1	3	0.076606996	-2.994	2.8429999	0.41999999
69	1	3	0.076606996	-2.177	1.614	1.451
70	1	5	0.51596999	2.5369999	3.095	9.0439997
71	1	6	-0.69642401	1.654	2.5539999	8.3990002
72	1	2	-0.258302	3.6400001	2.2820001	9.6569996
73	1	2	-0.097800002	3.118	1.321	10.734
74	1	2	-0.13947099	2.589	2.0669999	11.968
75	1	2	-0.14215501	2.118	1.082	13.045
76	1	2	-0.14215501	1.576	1.829	14.273
77	1	2	-0.13681599	1.2180001	0.88499999	15.432
78	1	2	-0.113612	-0.048999999	0.057999998	15.153
79	1	2	-0.21942499	-0.44100001	-0.82200003	16.347
80	1	5	0.82250398	-0.94400001	-0.0049999999	17.497999
81	1	6	-0.56294298	-0.212	0.191	18.504
82	1	7	-0.66685098	-2.2149999	0.56	17.441999
83	1	8	0.392248	-2.5669999	1.123	18.207001
84	1	4	0.116402	-1.248	-1.516	16.032
85	1	4	0.116402	0.42699999	-1.441	16.666
86	1	4	0.084159002	-0.89499998	0.73199999	14.891
87	1	4	0.084159002	0.132	-0.61199999	14.286
88	1	4	0.077076003	2.0739999	0.207	15.644
89	1	4	0.077076003	1.052	1.5089999	16.336
90	1	4	0.078947	0.68400002	2.4300001	13.988
91	1	4	0.078947	2.355	2.5350001	14.636
92	1	4	0.078947	1.321	0.43700001	12.617
93	1	4	0.078947	2.971	0.43799999	13.351
94	1	4	0.077076003	1.737	2.717	11.672
95	1	4	0.077076003	3.3959999	2.7090001	12.384
96	1	4	0.075400002	2.3180001	0.67699999	10.306
97	1	4	0.075400002	3.9560001	0.65899998	11.043
98	1	4	0.112313	4.4000001	2.9630001	10.098
99	1	4	0.112313	4.138	1.696	8.8549995

Bonds

1	1	1	2
2	2	1	49
3	3	2	3
4	4	2	19
5	4	2	20
6	3	3	4
7	4	3	17
8	4	3	18
9	3	4	5
10	4	4	15
11	4	4	16
12	3	5	6
13	4	5	13
14	4	5	14
15	3	6	7
16	4	6	11
17	4	6	12
18	1	7	8
19	4	7	9
20	4	7	10
21	5	8	21
22	6	21	22
23	7	21	23
24	3	23	24
25	4	23	47
26	4	23	48
27	3	24	25
28	4	24	45
29	4	24	46
30	3	25	26
31	4	25	43
32	4	25	44
33	3	26	27
34	4	26	41
35	4	26	42
36	3	27	28
37	4	27	39
38	4	27	40
39	3	28	29
40	4	28	37
41	4	28	38
42	3	29	30
43	4	29	35
44	4	29	36
45	7	30	31
46	4	30	33
47	4	30	34
48	6	31	32
49	8	31	70
50	1	49	50
51	3	50	51
52	4	50	68
53	4	50	69
54	3	51	52
55	4	51	66
56	4	51	67
57	3	52	53
58	4	52	64
59	4	52	65
60	3	53	54
61	4	53	62
62	4	53	63
63	3	54	55
64	4	54	60
65	4	54	61
66	9	55	56
67	4	55	58
68	4	55	59
69	10	56	57
70	6	70	71
71	7	70	72
72	3	72	73
73	4	72	98
74	4	72	99
75	3	73	74
76	4	73	96
77	4	73	97
78	3	74	75
79	4	74	94
80	4	74	95
81	3	75	76
82	4	75	92
83	4	75	93
84	3	76	77
85	4	76	90
86	4	76	91
87	3	77	78
88	4	77	88
89	4	77	89
90	3	78	79
91	4	78	86
92	4	78	87
93	7	79	80
94	4	79	84
95	4	79	85
96	6	80	81
97	11	80	82
98	10	82	83

Angles

1	1	24	25	43
2	1	7	6	11
3	1	76	77	89
4	1	52	53	63
5	1	52	53	54
6	1	28	29	35
7	1	6	5	14
8	1	3	2	19
9	1	53	54	60
10	1	73	74	94
11	1	78	79	85
12	1	1	2	19
13	1	74	73	96
14	1	26	27	28
15	1	75	74	94
16	1	27	28	37
17	5	33	30	34
18	1	51	52	64
19	1	70	72	98
20	1	7	6	12
21	1	24	25	26
22	1	77	78	86
23	5	37	28	38
24	1	5	6	12
25	5	9	7	10
26	1	53	54	55
27	5	90	76	91
28	4	30	31	32
29	1	52	51	67
30	1	21	23	24
31	1	26	27	39
32	1	72	73	96
33	5	17	3	18
34	1	77	78	87
35	4	32	31	70
36	1	3	4	5
37	1	23	24	45
38	1	78	77	88
39	1	28	29	36
40	1	54	53	63
41	1	56	55	59
42	4	31	70	71
43	5	62	53	63
44	5	96	73	97
45	1	54	55	56
46	1	77	78	79
47	5	15	4	16
48	1	49	50	69
49	1	26	25	43
50	1	77	76	90
51	1	76	77	88
52	1	72	73	97
53	4	79	80	81
54	1	5	6	11
55	1	53	54	61
56	1	52	53	62
57	1	54	55	58
58	1	25	24	46
59	1	53	52	64
60	5	88	77	89
61	1	54	55	59
62	1	4	3	18
63	1	74	75	93
64	4	79	80	82
65	1	25	26	42
66	5	60	54	61
67	1	74	73	97
68	1	5	4	15
69	1	51	52	65
70	1	2	3	18
71	1	73	72	99
72	1	73	74	75
73	1	75	76	77
74	5	86	78	87
75	1	29	30	34
76	1	50	51	66
77	1	50	51	52
78	1	4	3	17
79	1	76	75	92
80	5	19	2	20
81	1	51	50	69
82	1	80	79	85
83	1	2	3	17
84	1	74	75	76
85	1	28	27	40
86	1	55	54	60
87	1	5	6	7
88	1	70	72	73
89	5	13	5	14
90	1	8	7	10
91	1	3	4	16
92	1	76	77	78
93	1	29	28	38
94	1	3	2	20
95	2	2	1	49
96	5	45	24	46
97	1	25	26	41
98	1	4	5	6
99	1	54	53	62
100	1	1	2	20
101	5	58	55	59
102	1	27	26	42
103	5	11	6	12
104	1	6	7	10
105	1	3	4	15
106	1	72	73	74
107	4	71	70	72
108	1	24	23	47
109	1	5	4	16
110	5	68	50	69
111	1	53	52	65
112	1	8	7	9
113	2	7	8	21
114	1	23	24	46
115	1	30	29	36
116	4	30	31	70
117	1	26	27	40
118	1	50	51	67
119	1	23	24	25
120	1	6	7	9
121	1	78	77	89
122	3	81	80	82
123	3	8	21	22
124	1	30	29	35
125	4	31	70	72
126	5	35	29	36
127	1	55	54	61
128	1	4	5	13
129	1	24	25	44
130	1	78	79	84
131	1	73	72	98
132	1	29	28	37
133	1	70	72	99
134	1	49	50	68
135	1	28	29	30
136	1	24	23	48
137	5	64	52	65
138	5	92	75	93
139	1	31	30	34
140	5	41	26	42
141	1	29	30	33
142	1	73	74	95
143	1	74	75	92
144	5	47	23	48
145	1	29	30	31
146	1	6	5	13
147	1	1	2	3
148	1	80	79	84
149	5	94	74	95
150	1	2	3	4
151	1	75	74	95
152	1	27	28	38
153	1	21	23	48
154	4	8	21	23
155	5	98	72	99
156	2	1	49	50
157	4	22	21	23
158	1	78	79	80
159	2	55	56	57
160	1	79	78	86
161	1	25	26	27
162	5	66	51	67
163	1	27	28	29
164	5	43	25	44
165	1	52	51	66
166	1	31	30	33
167	1	4	5	14
168	1	51	50	68
169	1	21	23	47
170	1	25	24	45
171	1	51	52	53
172	1	6	7	8
173	1	56	55	58
174	1	76	75	93
175	1	75	76	91
176	1	27	26	41
177	1	79	78	87
178	5	84	79	85
179	1	28	27	39
180	1	77	76	91
181	1	75	76	90
182	1	26	25	44
183	1	49	50	51
184	5	39	27	40
185	2	80	82	83

Dihedrals

1	6	76	77	78	79
1	7	76	77	78	79
1	8	76	77	78	79
2	16	64	52	51	67
3	9	51	52	53	62
4	9	55	54	53	62
5	17	22	21	23	24
6	16	63	53	52	65
7	6	73	74	75	76
7	7	73	74	75	76
7	8	73	74	75	76
8	1	70	72	73	97
9	1	5	6	7	8
10	22	54	55	56	57
10	23	54	55	56	57
11	9	27	28	29	35
12	9	5	4	3	18
13	16	62	53	52	65
14	9	28	29	30	33
15	9	77	78	79	84
16	9	75	74	73	96
17	16	94	74	73	96
18	16	96	73	72	99
19	16	34	30	29	36
20	16	15	4	3	18
21	15	31	70	72	73
22	1	28	29	30	31
23	16	58	55	54	61
24	9	7	6	5	13
25	16	44	25	24	46
26	15	8	21	23	48
27	6	74	75	76	77
27	7	74	75	76	77
27	8	74	75	76	77
28	9	5	4	3	17
29	4	20	2	1	49
30	9	77	76	75	92
31	9	26	25	24	46
32	2	49	50	51	67
32	3	49	50	51	67
33	14	7	8	21	23
34	1	1	2	3	4
35	4	9	7	8	21
36	2	1	2	3	17
36	3	1	2	3	17
37	16	34	30	29	35
38	16	41	26	25	43
39	16	96	73	72	98
40	15	8	21	23	47
41	16	88	77	76	91
42	9	23	24	25	43
43	16	67	51	50	69
44	9	4	3	2	20
45	9	26	27	28	38
46	1	21	23	24	46
47	9	3	4	5	13
48	16	88	77	76	90
49	16	11	6	5	14
50	16	38	28	27	39
51	16	95	74	73	96
52	9	53	52	51	67
53	9	25	26	27	39
54	9	50	51	52	65
55	6	2	3	4	5
55	7	2	3	4	5
55	8	2	3	4	5
56	6	75	76	77	78
56	7	75	76	77	78
56	8	75	76	77	78
57	12	7	8	21	22
57	13	7	8	21	22
58	1	77	78	79	80
59	16	65	52	51	67
60	18	81	80	79	85
60	19	81	80	79	85
60	20	81	80	79	85
61	5	2	1	49	50
62	15	82	80	79	84
63	1	80	79	78	86
64	9	52	51	50	69
65	9	27	26	25	43
66	1	21	23	24	25
67	26	81	80	82	83
67	27	81	80	82	83
68	16	33	30	29	36
69	16	90	76	75	93
70	16	87	78	77	88
71	15	33	30	31	70
72	4	10	7	8	21
73	6	72	73	74	75
73	7	72	73	74	75
73	8	72	73	74	75
74	16	97	73	72	99
75	9	75	76	77	88
76	18	32	31	30	34
76	19	32	31	30	34
76	20	32	31	30	34
77	16	40	27	26	42
78	2	56	55	54	61
78	3	56	55	54	61
79	16	10	7	6	12
80	9	24	25	26	42
81	9	7	6	5	14
82	6	52	53	54	55
82	7	52	53	54	55
82	8	52	53	54	55
83	2	8	7	6	11
83	3	8	7	6	11
84	1	80	79	78	87
85	9	4	5	6	12
86	1	31	30	29	35
87	16	66	51	50	69
88	16	39	27	26	42
89	16	33	30	29	35
90	17	71	70	72	73
91	9	54	53	52	64
92	9	76	75	74	95
93	16	61	54	53	63
94	16	16	4	3	18
95	16	59	55	54	60
96	21	30	31	70	71
97	16	94	74	73	97
98	16	97	73	72	98
99	9	75	74	73	97
100	15	31	70	72	99
101	16	86	78	77	89
102	6	25	26	27	28
102	7	25	26	27	28
102	8	25	26	27	28
103	9	77	78	79	85
104	16	37	28	27	39
105	9	78	77	76	91
106	9	3	4	5	14
107	15	8	21	23	24
108	9	73	74	75	92
109	16	91	76	75	93
110	16	16	4	3	17
111	16	85	79	78	87
112	16	89	77	76	91
113	2	8	7	6	12
113	3	8	7	6	12
114	9	26	27	28	37
115	16	44	25	24	45
116	9	28	27	26	42
117	16	9	7	6	12
118	16	10	7	6	11
119	16	40	27	26	41
120	4	1	49	50	68
121	21	32	31	70	72
122	9	24	25	26	41
123	9	52	53	54	61
124	9	79	78	77	88
125	16	18	3	2	20
126	9	4	5	6	11
127	9	26	25	24	45
128	9	29	28	27	40
129	16	39	27	26	41
130	16	36	29	28	38
131	16	17	3	2	19
132	16	35	29	28	38
133	9	2	3	4	16
134	6	26	27	28	29
134	7	26	27	28	29
134	8	26	27	28	29
135	1	31	30	29	36
136	16	95	74	73	97
137	4	19	2	1	49
138	6	27	28	29	30
138	7	27	28	29	30
138	8	27	28	29	30
139	16	43	25	24	46
140	9	30	29	28	38
141	6	23	24	25	26
141	7	23	24	25	26
141	8	23	24	25	26
142	16	42	26	25	44
143	1	70	72	73	74
144	9	2	3	4	15
145	9	76	75	74	94
146	16	13	5	4	16
147	16	45	24	23	48
148	16	85	79	78	86
149	9	25	24	23	48
150	9	54	53	52	65
151	16	9	7	6	11
152	9	6	5	4	16
153	9	76	77	78	86
154	9	28	27	26	41
155	6	4	5	6	7
155	7	4	5	6	7
155	8	4	5	6	7
156	15	29	30	31	70
157	1	53	54	55	56
158	18	71	70	72	99
158	19	71	70	72	99
158	20	71	70	72	99
159	25	79	80	82	83
160	18	81	80	79	84
160	19	81	80	79	84
160	20	81	80	79	84
161	9	5	6	7	10
162	16	45	24	23	47
163	16	61	54	53	62
164	16	13	5	4	15
165	9	25	24	23	47
166	9	77	76	75	93
167	9	6	5	4	15
168	16	38	28	27	40
169	16	92	75	74	95
170	16	12	6	5	13
171	18	32	31	30	33
171	19	32	31	30	33
171	20	32	31	30	33
172	16	67	51	50	68
173	4	1	49	50	51
174	10	6	7	8	21
174	11	6	7	8	21
175	9	74	75	76	91
176	9	53	54	55	58
177	9	76	77	78	87
178	9	78	77	76	90
179	16	60	54	53	63
180	9	72	73	74	95
181	9	51	52	53	63
182	6	51	52	53	54
182	7	51	52	53	54
182	8	51	52	53	54
183	9	53	54	55	59
184	9	55	54	53	63
185	9	4	3	2	19
186	17	78	79	80	81
187	16	89	77	76	90
188	16	87	78	77	89
189	18	22	21	23	48
189	19	22	21	23	48
189	20	22	21	23	48
190	16	90	76	75	92
191	16	93	75	74	95
192	16	36	29	28	37
193	1	70	72	73	96
194	15	31	70	72	98
195	9	75	76	77	89
196	9	52	51	50	68
197	16	35	29	28	37
198	9	74	73	72	99
199	9	29	28	27	39
200	16	64	52	51	66
201	2	56	55	54	60
201	3	56	55	54	60
202	9	5	6	7	9
203	16	63	53	52	64
204	9	30	29	28	37
205	6	50	51	52	53
205	7	50	51	52	53
205	8	50	51	52	53
206	15	78	79	80	82
207	18	22	21	23	47
207	19	22	21	23	47
207	20	22	21	23	47
208	24	57	56	55	58
209	1	21	23	24	45
210	16	62	53	52	64
211	16	84	79	78	86
212	24	57	56	55	59
213	16	58	55	54	60
214	21	30	31	70	72
215	15	34	30	31	70
216	16	66	51	50	68
217	15	82	80	79	85
218	9	74	73	72	98
219	6	24	25	26	27
219	7	24	25	26	27
219	8	24	25	26	27
220	16	42	26	25	43
221	16	37	28	27	40
222	16	43	25	24	45
223	16	41	26	25	44
224	16	91	76	75	92
225	16	15	4	3	17
226	16	84	79	78	87
227	16	46	24	23	48
228	9	23	24	25	44
229	16	12	6	5	14
230	16	14	5	4	16
231	2	49	50	51	66
231	3	49	50	51	66
232	17	29	30	31	32
233	16	59	55	54	61
234	1	49	50	51	52
235	16	92	75	74	94
236	9	28	29	30	34
237	9	52	53	54	60
238	16	86	78	77	88
239	9	79	78	77	89
240	9	72	73	74	94
241	2	1	2	3	18
241	3	1	2	3	18
242	9	73	74	75	93
243	16	46	24	23	47
244	9	25	26	27	40
245	9	50	51	52	64
246	16	14	5	4	15
247	4	1	49	50	69
248	9	27	26	25	44
249	9	53	52	51	66
250	16	93	75	74	94
251	16	17	3	2	20
252	9	27	28	29	36
253	4	3	2	1	49
254	9	74	75	76	90
255	16	65	52	51	66
256	18	71	70	72	98
256	19	71	70	72	98
256	20	71	70	72	98
257	21	32	31	70	71
258	16	11	6	5	13
259	16	18	3	2	19
260	6	3	4	5	6
260	7	3	4	5	6
260	8	3	4	5	6
261	16	60	54	53	62

Impropers

18	1	80	79	81	82
157	1	21	22	23	8
165	1	80	82	79	81
243	2	70	71	72	31
347	1	80	81	82	79
353	2	31	30	32	70
442	2	70	31	71	72
539	1	21	23	8	22
561	2	31	70	30	32
568	2	31	32	70	30
584	1	21	8	22	23
647	2	70	72	31	71
