Title

51 atoms
50 bonds
89 angles
149 dihedrals
12 impropers

8 atom types
11 bond types
5 angle types
27 dihedral types
2 improper types
-3.872999907 96.12700009 xlo xhi
-1.873000026 98.12699997 ylo yhi
-5.041999817 94.95800018 zlo zhi
0.0 0.0 0.0 xy xz yz

Masses

1	15.99943
2	12.01078
3	1.007947
4	1.007947
5	12.01078
6	15.99943
7	15.99943
8	1.007947


Pair Coeffs

1	0.16846514	3.0251065
2	0.10884061	3.3795318
3	0.016409246	2.5832257
4	0.015779483	2.6445434
5	0.086879315	3.4806469
6	0.2102061	3.0398122
7	0.20947353	2.99716
8	1.2326e-05	0.53453923

Bond Coeffs

1 harmonic	366.7408841747	1.425895053732
2 harmonic	300.03137914615	1.451203938761
3 harmonic	264.62148576755	1.52190126495
4 harmonic	370.04670688625	1.093899492634
5 harmonic	301.15400723785	1.345741232799
6 harmonic	582.698766451	1.225198386222
7 harmonic	329.44145381095	1.523435958334
8 harmonic	279.1350963404	1.454628925034
9 harmonic	329.96998057905	1.427343958716
10 harmonic	543.5267831885	0.9716763312559
11 harmonic	385.7604595587	1.369745182308


Angle Coeffs

1 harmonic	53.20531626545	116.5475862634
2 harmonic	65.09061609600001	110.3538806181
3 harmonic	201.41175231035	127.4691416191
4 harmonic	57.8982893754	126.8062420451
5 harmonic	48.776492647595	115.6030999533


Dihedral Coeffs

1 fourier 1	0.1155372516788	3	0
2 fourier 1	0.1115525666802	3	0
3 fourier 1	0.3432490222662	1	0
4 fourier 1	0.0473758381877	3	0
5 fourier 1	0.457973137376	1	0
6 fourier 1	0.09223874044423	3	0
7 fourier 1	0.3159935921949	2	180
8 fourier 1	0.3247796806857	1	180
9 fourier 1	0.1040663847541	3	0
10 fourier 1	0.1918272375143	3	0
11 fourier 1	0.9202179876409	1	180
12 fourier 1	1.163809172478	2	180
13 fourier 1	0.1679186987369	1	180
14 fourier 1	2.779853741805	2	180
15 fourier 1	0.02664938770063	3	0
16 fourier 1	0.1911926717192	3	0
17 fourier 1	-0.3703352413219	2	0
18 fourier 1	0.4541676554336	1	0
19 fourier 1	0.1489710476446	2	0
20 fourier 1	0.02960027280666	3	180
21 fourier 1	0.9974165607242	2	180
22 fourier 1	0.3445382149273	3	0
23 fourier 1	0.1364556373303	1	0
24 fourier 1	0.3026390167484	3	0
25 fourier 1	2.687457892086	2	180
26 fourier 1	2.772607909663	2	180
27 fourier 1	0.09692684957115	1	0


Improper Coeffs

1 3.5	-1	2
2 0.3666666666666667	-1	2


Atoms

1	1	1	-0.17373	-2.5580001	0.57200003	0.94400001
2	1	2	0.033211999	-1.365	0.62599999	0.20999999
3	1	2	-0.145254	-0.671	-0.741	0.23
4	1	2	-0.137881	0.55199999	-0.81	-0.69999999
5	1	2	0.13548	1.743	0.017999999	-0.205
6	1	1	-0.49472499	1.545	1.374	-0.49000001
7	1	3	0.082231998	2.661	-0.33199999	-0.72899997
8	1	3	0.082231998	1.8890001	-0.13	0.889
9	1	4	0.090094	0.87400001	-1.873	-0.75599998
10	1	4	0.090094	0.27200001	-0.498	-1.73
11	1	4	0.091122001	-1.399	-1.512	-0.104
12	1	4	0.091122001	-0.37400001	-0.99400002	1.272
13	1	3	0.081914	-1.572	0.94300002	-0.838
14	1	3	0.081914	-0.708	1.386	0.68000001
15	1	5	0.76797003	2.375	1.872	-0.113
16	1	6	-0.54950899	3.3169999	1.23	0.32300001
17	1	2	-0.159466	2.418	3.3729999	-0.125
18	1	2	-0.25221699	2.4619999	3.954	1.2920001
19	1	5	0.52195799	1.191	3.6719999	2.04
20	1	6	-0.689183	1.202	2.9579999	3.03
21	1	4	0.13276701	2.5899999	5.0560002	1.225
22	1	4	0.13276701	3.3369999	3.546	1.845
23	1	4	0.120798	1.526	3.763	-0.66299999
24	1	4	0.120798	3.3199999	3.7019999	-0.68300003
25	1	1	-0.17373	-3.2279999	0.123	0.366
26	1	2	0.033323999	-2.677	0.068999998	-0.92199999
27	1	2	-0.13951901	-2.8	1.436	-1.605
28	1	2	-0.16656899	-2.059	1.506	-2.9519999
29	1	2	0.086689003	-2.724	0.67699999	-4.0580001
30	1	7	-0.68276602	-2.4130001	-0.67900002	-3.904
31	1	8	0.38080099	-2.885	-1.155	-4.6350002
32	1	3	0.072623998	-2.3399999	1.027	-5.0419998
33	1	3	0.072623998	-3.8269999	0.82599998	-4.0409999
34	1	4	0.093584999	-2.0510001	2.5680001	-3.2780001
35	1	4	0.093584999	-1	1.193	-2.826
36	1	4	0.091293	-2.3610001	2.207	-0.93400002
37	1	4	0.091293	-3.8729999	1.689	-1.747
38	1	3	0.081914	-1.6109999	-0.248	-0.87199998
39	1	3	0.081914	-3.2390001	-0.69099998	-1.503
40	1	5	0.52195799	0.25400001	4.0939999	1.693
41	1	6	-0.689183	-0.398	4.8080001	2.438
42	1	2	-0.25029799	-0.223	3.8139999	0.29899999
43	1	2	-0.16627499	-1.522	3.0050001	0.31799999
44	1	5	0.82897699	-1.977	2.7149999	-1.077
45	1	6	-0.55547601	-1.598	1.664	-1.66
46	1	7	-0.665694	-2.7839999	3.6289999	-1.747
47	1	8	0.397012	-3.0869999	3.4560001	-2.698
48	1	4	0.120938	-2.3169999	3.5769999	0.84500003
49	1	4	0.120938	-1.364	2.0480001	0.86199999
50	1	4	0.13276701	0.56400001	3.2409999	-0.23899999
51	1	4	0.13276701	-0.38	4.7779999	-0.23199999

Bonds

1	1	1	2
2	2	1	25
3	3	2	3
4	4	2	13
5	4	2	14
6	3	3	4
7	4	3	11
8	4	3	12
9	3	4	5
10	4	4	9
11	4	4	10
12	1	5	6
13	4	5	7
14	4	5	8
15	5	6	15
16	6	15	16
17	7	15	17
18	3	17	18
19	4	17	23
20	4	17	24
21	7	18	19
22	4	18	21
23	4	18	22
24	6	19	20
25	8	19	40
26	1	25	26
27	3	26	27
28	4	26	38
29	4	26	39
30	3	27	28
31	4	27	36
32	4	27	37
33	3	28	29
34	4	28	34
35	4	28	35
36	9	29	30
37	4	29	32
38	4	29	33
39	10	30	31
40	6	40	41
41	7	40	42
42	3	42	43
43	4	42	50
44	4	42	51
45	7	43	44
46	4	43	48
47	4	43	49
48	6	44	45
49	11	44	46
50	10	46	47

Angles

1	1	29	28	35
2	1	17	18	21
3	3	45	44	46
4	1	4	3	11
5	1	44	43	49
6	1	28	27	36
7	2	2	1	25
8	1	3	4	9
9	1	2	3	4
10	5	50	42	51
11	1	4	5	6
12	5	21	18	22
13	4	18	19	20
14	4	41	40	42
15	1	15	17	18
16	1	1	2	13
17	4	19	40	41
18	1	40	42	51
19	1	25	26	39
20	3	6	15	16
21	1	27	28	29
22	4	43	44	45
23	5	48	43	49
24	1	43	42	51
25	1	28	29	33
26	1	27	26	38
27	1	26	27	36
28	5	23	17	24
29	1	25	26	38
30	1	28	29	32
31	1	29	28	34
32	2	44	46	47
33	1	44	43	48
34	1	42	43	49
35	1	3	4	5
36	5	13	2	14
37	1	30	29	33
38	4	20	19	40
39	1	18	17	23
40	5	36	27	37
41	1	18	17	24
42	1	5	4	10
43	1	42	43	44
44	4	6	15	17
45	1	40	42	50
46	1	4	5	7
47	1	4	5	8
48	4	18	19	40
49	2	5	6	15
50	1	5	4	9
51	1	2	3	12
52	5	9	4	10
53	1	43	42	50
54	5	7	5	8
55	1	3	2	14
56	1	2	3	11
57	5	38	26	39
58	4	16	15	17
59	1	19	18	21
60	2	29	30	31
61	1	28	27	37
62	5	11	3	12
63	4	43	44	46
64	1	19	18	22
65	1	42	43	48
66	1	6	5	7
67	1	6	5	8
68	1	40	42	43
69	1	15	17	23
70	1	27	28	35
71	1	17	18	22
72	1	15	17	24
73	1	1	2	14
74	5	34	28	35
75	1	28	29	30
76	2	1	25	26
77	4	19	40	42
78	1	30	29	32
79	1	27	26	39
80	1	27	28	34
81	1	1	2	3
82	1	26	27	28
83	1	3	2	13
84	1	17	18	19
85	1	26	27	37
86	1	25	26	27
87	1	4	3	12
88	5	32	29	33
89	1	3	4	10

Dihedrals

1	15	19	40	42	50
2	16	36	27	26	39
3	6	2	3	4	5
3	7	2	3	4	5
3	8	2	3	4	5
4	2	30	29	28	35
4	3	30	29	28	35
5	18	45	44	43	48
5	19	45	44	43	48
5	20	45	44	43	48
6	12	5	6	15	16
6	13	5	6	15	16
7	25	43	44	46	47
8	24	31	30	29	33
9	9	29	28	27	37
10	16	34	28	27	37
11	2	6	5	4	9
11	3	6	5	4	9
12	18	41	40	42	51
12	19	41	40	42	51
12	20	41	40	42	51
13	16	9	4	3	12
14	18	16	15	17	23
14	19	16	15	17	23
14	20	16	15	17	23
15	18	16	15	17	24
15	19	16	15	17	24
15	20	16	15	17	24
16	16	36	27	26	38
17	2	30	29	28	34
17	3	30	29	28	34
18	1	40	42	43	49
19	16	9	4	3	11
20	9	27	28	29	33
21	16	12	3	2	14
22	9	28	27	26	39
23	15	17	18	19	40
24	5	2	1	25	26
25	4	1	25	26	39
26	2	1	2	3	12
26	3	1	2	3	12
27	17	42	43	44	45
28	16	33	29	28	35
29	16	7	5	4	10
30	1	40	42	43	48
31	2	1	2	3	11
31	3	1	2	3	11
32	4	7	5	6	15
33	9	5	4	3	12
34	15	19	40	42	43
35	2	6	5	4	10
35	3	6	5	4	10
36	15	46	44	43	49
37	9	5	4	3	11
38	1	25	26	27	28
39	4	1	25	26	38
40	16	7	5	4	9
41	2	25	26	27	37
41	3	25	26	27	37
42	15	6	15	17	18
43	14	5	6	15	17
44	9	29	28	27	36
45	16	34	28	27	36
46	10	4	5	6	15
46	11	4	5	6	15
47	1	3	4	5	6
48	24	31	30	29	32
49	4	3	2	1	25
50	17	16	15	17	18
51	18	41	40	42	50
51	19	41	40	42	50
51	20	41	40	42	50
52	16	10	4	3	12
53	16	37	27	26	39
54	18	20	19	18	21
54	19	20	19	18	21
54	20	20	19	18	21
55	16	11	3	2	13
56	1	15	17	18	19
57	16	10	4	3	11
58	16	35	28	27	37
59	4	14	2	1	25
60	21	18	19	40	42
61	9	4	3	2	13
62	9	27	28	29	32
63	9	28	27	26	38
64	1	15	17	18	21
65	18	20	19	18	22
65	19	20	19	18	22
65	20	20	19	18	22
66	9	26	27	28	35
67	16	33	29	28	34
68	16	21	18	17	23
69	1	15	17	18	22
70	16	21	18	17	24
71	2	25	26	27	36
71	3	25	26	27	36
72	15	46	44	43	48
73	15	21	18	19	40
74	15	19	40	42	51
75	18	45	44	43	49
75	19	45	44	43	49
75	20	45	44	43	49
76	21	20	19	40	42
77	16	22	18	17	23
78	1	1	2	3	4
79	9	26	27	28	34
80	16	22	18	17	24
81	15	22	18	19	40
82	22	28	29	30	31
82	23	28	29	30	31
83	17	41	40	42	43
84	16	49	43	42	51
85	26	45	44	46	47
85	27	45	44	46	47
86	15	42	43	44	46
87	17	17	18	19	20
88	4	13	2	1	25
89	16	12	3	2	13
90	16	48	43	42	51
91	16	35	28	27	36
92	16	49	43	42	50
93	21	18	19	40	41
94	16	32	29	28	35
95	16	37	27	26	38
96	9	2	3	4	10
97	1	44	43	42	51
98	1	19	18	17	23
99	1	19	18	17	24
100	9	3	4	5	7
101	9	3	4	5	8
102	16	11	3	2	14
103	16	8	5	4	10
104	16	48	43	42	50
105	9	2	3	4	9
106	16	32	29	28	34
107	9	4	3	2	14
108	1	44	43	42	50
109	4	8	5	6	15
110	21	20	19	40	41
111	6	26	27	28	29
111	7	26	27	28	29
111	8	26	27	28	29
112	16	8	5	4	9
113	4	1	25	26	27
114	15	6	15	17	23
115	15	6	15	17	24
116	1	27	28	29	30
117	1	40	42	43	44

Impropers

4	1	44	46	43	45
36	2	19	20	40	18
63	1	44	43	45	46
95	1	15	16	17	6
112	2	19	40	18	20
131	2	40	42	19	41
143	2	19	18	20	40
190	2	40	41	42	19
203	1	15	6	16	17
223	1	15	17	6	16
236	1	44	45	46	43
256	2	40	19	41	42
