Title

630 atoms
629 bonds
1202 angles
2244 dihedrals
102 impropers

11 atom types
14 bond types
9 angle types
35 dihedral types
3 improper types
-13.22999954 86.77000046 xlo xhi
-21.93199921 78.06800079 ylo yhi
-12.88399982 87.11600018 zlo zhi
0.0 0.0 0.0 xy xz yz

Masses

1	15.99943
2	12.01078
3	14.00672
4	12.01078
5	1.007947
6	1.007947
7	1.007947
8	15.99943
9	12.01078
10	15.99943
11	1.007947


Pair Coeffs

1	0.2102061	3.0398122
2	0.086879315	3.4806469
3	0.16769152	3.206876
4	0.10884061	3.3795318
5	0.014090815	1.1034277
6	0.016409246	2.5832257
7	0.015779483	2.6445434
8	0.16846514	3.0251065
9	0.21	3.3996695
10	0.20947353	2.99716
11	1.2326e-05	0.53453923

Bond Coeffs

1 harmonic	582.698766451	1.225198386222
2 harmonic	492.76746816345	1.381897776683
3 harmonic	301.15400723785	1.345741232799
4 harmonic	352.0565580496	1.450098586273
5 harmonic	505.144496193	1.019481865027
6 harmonic	264.62148576755	1.52190126495
7 harmonic	370.04670688625	1.093899492634
8 harmonic	279.1350963404	1.454628925034
9 harmonic	366.7408841747	1.425895053732
10 harmonic	300.03137914615	1.451203938761
11 harmonic	366.34047229585	1.464762957261
12 harmonic	602.81384337	1.196112346392
13 harmonic	329.96998057905	1.427343958716
14 harmonic	543.5267831885	0.9716763312559


Angle Coeffs

1 harmonic	57.8982893754	126.8062420451
2 harmonic	201.41175231035	127.4691416191
3 harmonic	55.42182150775	117.3465570514
4 harmonic	63.44422595415	115.5071327674
5 harmonic	65.09061609600001	110.3538806181
6 harmonic	53.20531626545	116.5475862634
7 harmonic	48.776492647595	115.6030999533
8 harmonic	55.07882548015	112.8714009681
9 harmonic	33.56981613361	180


Dihedral Coeffs

1 fourier 1	1.809047390003	2	180
2 fourier 1	-0.04816277792592	1	0
3 fourier 1	0.4860993122944	2	180
4 fourier 1	0.8916986138746	1	0
5 fourier 1	1.163809172478	2	180
6 fourier 1	0.1679186987369	1	180
7 fourier 1	-0.1488678166443	4	180
8 fourier 1	-0.1230328948768	3	180
9 fourier 1	0.2939295466901	2	0
10 fourier 1	-0.3024127022865	1	0
11 fourier 1	0.182238503271	2	0
12 fourier 1	0.02972342374561	3	0
13 fourier 1	0.1918272375143	3	0
14 fourier 1	0.9202179876409	1	180
15 fourier 1	0.0473758381877	3	0
16 fourier 1	2.779853741805	2	180
17 fourier 1	0.1155372516788	3	0
18 fourier 1	0.09223874044423	3	0
19 fourier 1	0.3159935921949	2	180
20 fourier 1	0.3247796806857	1	180
21 fourier 1	0.1040663847541	3	0
22 fourier 1	3.101948770557	2	180
23 fourier 1	-0.4252153282372	1	0
24 fourier 1	0.9974165607242	2	180
25 fourier 1	2.348375642009	2	180
26 fourier 1	1.256156174911	1	0
27 fourier 1	0.1911926717192	3	0
28 fourier 1	0.1115525666802	3	0
29 fourier 1	0.3432490222662	1	0
30 fourier 1	0.457973137376	1	0
31 fourier 1	-1.382973039546	1	0
32 fourier 1	0	1	0
33 fourier 1	0.3445382149273	3	0
34 fourier 1	0.1364556373303	1	0
35 fourier 1	0.3026390167484	3	0


Improper Coeffs

1 3.5	-1	2
2 0.3333333333333333	-1	2
3 0.3666666666666667	-1	2


Atoms

1	1	1	-0.634013	6.4439998	-0.75	1.25
2	1	2	0.78108501	6.4899998	-1.268	0.103
3	1	3	-0.47193301	5.6620002	-0.77999997	-0.958
4	1	4	0.022018	4.7210002	0.324	-0.78299999
5	1	4	-0.146964	3.48	-0.14399999	-0.016000001
6	1	4	-0.143501	2.461	0.99699998	0.13
7	1	4	-0.143099	1.2589999	0.611	1.006
8	1	4	-0.141854	0.28400001	-0.33700001	0.287
9	1	4	-0.141854	-0.89200002	-0.77399999	1.179
10	1	4	-0.143099	-1.823	0.366	1.6390001
11	1	4	-0.143501	-2.4319999	1.215	0.50599998
12	1	4	-0.148238	-3.23	0.41999999	-0.54299998
13	1	4	0.027941	-4.4580002	-0.28400001	0.050000001
14	1	3	-0.52746397	-5.256	-0.89700001	-1.0089999
15	1	2	0.53873599	-6.1170001	-0.14	-1.867
16	1	1	-0.71385998	-6.2249999	1.109	-1.737
17	1	5	0.313476	-5.2480001	-1.937	-1.109
18	1	6	0.044599999	-4.125	-1.081	0.74800003
19	1	6	0.044599999	-5.0830002	0.435	0.62300003
20	1	7	0.081754997	-2.5780001	-0.324	-1.0470001
21	1	7	0.081754997	-3.5650001	1.136	-1.324
22	1	7	0.080733001	-3.102	1.977	0.95999998
23	1	7	0.080733001	-1.625	1.778	-0.0080000004
24	1	7	0.07999	-2.641	-0.071000002	2.25
25	1	7	0.07999	-1.266	1.04	2.325
26	1	7	0.07999	-1.489	-1.5369999	0.63700002
27	1	7	0.07999	-0.48699999	-1.28	2.082
28	1	7	0.07999	-0.092	0.13600001	-0.64399999
29	1	7	0.07999	0.824	-1.2589999	-0.014
30	1	7	0.07999	1.613	0.148	1.954
31	1	7	0.07999	0.72399998	1.549	1.267
32	1	7	0.080733001	2.967	1.8660001	0.60600001
33	1	7	0.080733001	2.108	1.322	-0.87300003
34	1	7	0.081754997	3.023	-0.99199998	-0.56900001
35	1	7	0.081754997	3.7809999	-0.50099999	0.99199998
36	1	6	0.048076	5.2199998	1.161	-0.24600001
37	1	6	0.048076	4.4109998	0.69700003	-1.784
38	1	5	0.32006299	5.7800002	-1.1950001	-1.91
39	1	8	-0.50260299	10.281	-10.739	-5.8080001
40	1	4	0.111448	10.888	-9.8190002	-4.941
41	1	4	-0.141039	9.8900003	-8.7449999	-4.493
42	1	4	-0.142015	9.4139996	-7.8850002	-5.6739998
43	1	4	-0.14318401	8.3310003	-6.8730001	-5.2690001
44	1	4	-0.141854	8.8830004	-5.724	-4.4120002
45	1	4	-0.141854	7.802	-4.6700001	-4.1440001
46	1	4	-0.14318401	8.349	-3.527	-3.28
47	1	4	-0.142015	7.2610002	-2.4779999	-3.0039999
48	1	4	-0.141039	7.8010001	-1.243	-2.2620001
49	1	4	0.111448	8.2130003	-1.529	-0.81099999
50	1	8	-0.50260299	7.1420002	-2.0550001	-0.075999998
51	1	6	0.078244001	8.5740004	-0.58700001	-0.33899999
52	1	6	0.078244001	9.0579996	-2.247	-0.78500003
53	1	7	0.085534997	8.6719999	-0.82700002	-2.8139999
54	1	7	0.085534997	7.0110002	-0.461	-2.257
55	1	7	0.081711002	6.8400002	-2.1340001	-3.974
56	1	7	0.081711002	6.4310002	-2.937	-2.424
57	1	7	0.07999	8.7139997	-3.947	-2.319
58	1	7	0.07999	9.2019997	-3.0450001	-3.806
59	1	7	0.07999	7.4419999	-4.2579999	-5.1129999
60	1	7	0.07999	6.9439998	-5.1479998	-3.622
61	1	7	0.07999	9.7379999	-5.2459998	-4.9400001
62	1	7	0.07999	9.2440004	-6.1220002	-3.4400001
63	1	7	0.07999	7.513	-7.3930001	-4.723
64	1	7	0.07999	7.895	-6.447	-6.1999998
65	1	7	0.081711002	10.278	-7.3509998	-6.1269999
66	1	7	0.081711002	8.9829998	-8.5489998	-6.454
67	1	7	0.085534997	10.393	-8.1029997	-3.74
68	1	7	0.085534997	9.0200005	-9.2360001	-4.0040002
69	1	6	0.078244001	11.743	-9.3409996	-5.4640002
70	1	6	0.078244001	11.295	-10.346	-4.0479999
71	1	1	-0.634013	0.63499999	-8.4940004	3.6059999
72	1	2	0.78108501	0.72000003	-7.3779998	3.0280001
73	1	3	-0.47193301	0.91299999	-7.2950001	1.612
74	1	4	0.022018	1.029	-8.4770002	0.75999999
75	1	4	-0.146964	2.4100001	-9.1210003	0.92000002
76	1	4	-0.143501	2.5610001	-10.335	-0.0089999996
77	1	4	-0.143099	3.8800001	-11.092	0.212
78	1	4	-0.141854	5.0939999	-10.342	-0.361
79	1	4	-0.141854	6.4260001	-11.067	-0.092
80	1	4	-0.143099	6.5580001	-12.456	-0.74699998
81	1	4	-0.143501	6.3530002	-12.485	-2.2739999
82	1	4	-0.146964	7.2839999	-11.554	-3.072
83	1	4	0.022018	8.7659998	-11.924	-2.9230001
84	1	3	-0.47193301	9.5880003	-11.107	-3.813
85	1	2	0.78108501	9.6789999	-11.347	-5.2210002
86	1	1	-0.634013	9.0450001	-12.294	-5.7589998
87	1	5	0.32006299	10.182	-10.353	-3.4000001
88	1	6	0.048076	9.0889997	-11.74	-1.876
89	1	6	0.048076	8.9259996	-13.001	-3.148
90	1	7	0.081754997	7.1290002	-10.497	-2.7709999
91	1	7	0.081754997	6.9980001	-11.63	-4.1420002
92	1	7	0.080733001	6.5029998	-13.528	-2.628
93	1	7	0.080733001	5.2989998	-12.226	-2.5090001
94	1	7	0.07999	7.5619998	-12.866	-0.505
95	1	7	0.07999	5.8309999	-13.154	-0.27900001
96	1	7	0.07999	7.2610002	-10.42	-0.433
97	1	7	0.07999	6.552	-11.184	1.007
98	1	7	0.07999	4.96	-10.173	-1.45
99	1	7	0.07999	5.1659999	-9.342	0.115
100	1	7	0.07999	4.0279999	-11.286	1.2970001
101	1	7	0.07999	3.7880001	-12.074	-0.29800001
102	1	7	0.080733001	1.724	-11.04	0.189
103	1	7	0.080733001	2.484	-10.013	-1.071
104	1	7	0.081754997	3.1830001	-8.3610001	0.68000001
105	1	7	0.081754997	2.5469999	-9.4440002	1.974
106	1	6	0.048076	0.227	-9.2030001	1.0140001
107	1	6	0.048076	0.88999999	-8.1709995	-0.301
108	1	5	0.32006299	0.91100001	-6.3499999	1.1670001
109	1	8	-0.50260299	2.3870001	4.1300001	4.9780002
110	1	4	0.111448	1.502	3.1689999	5.4899998
111	1	4	-0.141039	1.726	1.807	4.823
112	1	4	-0.142015	1.401	1.85	3.3210001
113	1	4	-0.14318401	1.721	0.52700001	2.609
114	1	4	-0.141854	0.74199998	-0.59799999	2.98
115	1	4	-0.141854	1.0140001	-1.858	2.148
116	1	4	-0.14318401	0.045000002	-2.9860001	2.5239999
117	1	4	-0.142015	0.32699999	-4.25	1.698
118	1	4	-0.141039	-0.71200001	-5.3590002	1.938
119	1	4	0.111448	-0.63300002	-5.9829998	3.339
120	1	8	-0.50260299	0.64300001	-6.507	3.5880001
121	1	6	0.078244001	-1.399	-6.7859998	3.428
122	1	6	0.078244001	-0.87	-5.223	4.112
123	1	7	0.085534997	-1.735	-4.9559999	1.775
124	1	7	0.085534997	-0.551	-6.1620002	1.1849999
125	1	7	0.081711002	0.29800001	-3.9860001	0.61799997
126	1	7	0.081711002	1.348	-4.6290002	1.9220001
127	1	7	0.07999	0.161	-3.2130001	3.605
128	1	7	0.07999	-0.99900001	-2.6489999	2.3410001
129	1	7	0.07999	0.898	-1.618	1.068
130	1	7	0.07999	2.059	-2.197	2.325
131	1	7	0.07999	-0.30000001	-0.257	2.7980001
132	1	7	0.07999	0.85100001	-0.84899998	4.0560002
133	1	7	0.07999	2.763	0.215	2.842
134	1	7	0.07999	1.6619999	0.70599997	1.512
135	1	7	0.081711002	0.329	2.109	3.1730001
136	1	7	0.081711002	2.0079999	2.6489999	2.8429999
137	1	7	0.085534997	1.0700001	1.067	5.3270001
138	1	7	0.085534997	2.7820001	1.494	4.9749999
139	1	6	0.078244001	0.45899999	3.507	5.3109999
140	1	6	0.078244001	1.6390001	3.072	6.5910001
141	1	1	-0.634013	10.189	-7.0380001	6.027
142	1	2	0.78108501	9.3669996	-7.3610001	5.1279998
143	1	3	-0.47193301	8.9370003	-6.4099998	4.1490002
144	1	4	0.022018	9.408	-5.026	4.1290002
145	1	4	-0.146964	8.7259998	-4.2119999	5.2340002
146	1	4	-0.143501	9.1759996	-2.744	5.191
147	1	4	-0.143099	8.6199999	-1.9170001	6.362
148	1	4	-0.141854	7.1240001	-1.596	6.1989999
149	1	4	-0.141854	6.5469999	-0.81900001	7.3959999
150	1	4	-0.143099	7.1599998	0.57700002	7.6269999
151	1	4	-0.143501	7.092	1.5319999	6.4180002
152	1	4	-0.146964	5.6760001	1.781	5.8670001
153	1	4	0.022018	4.7509999	2.4590001	6.8860002
154	1	3	-0.47193301	3.474	2.8039999	6.2649999
155	1	2	0.78108501	3.3169999	3.927	5.3909998
156	1	1	-0.634013	4.2909999	4.678	5.1199999
157	1	5	0.32006299	2.625	2.2479999	6.5139999
158	1	6	0.048076	4.5570002	1.762	7.7290001
159	1	6	0.048076	5.2270002	3.3740001	7.3000002
160	1	7	0.081754997	5.2210002	0.82999998	5.52
161	1	7	0.081754997	5.7740002	2.4360001	4.9749999
162	1	7	0.080733001	7.5339999	2.507	6.7179999
163	1	7	0.080733001	7.7319999	1.1390001	5.6009998
164	1	7	0.07999	6.6500001	1.048	8.4940004
165	1	7	0.07999	8.2229996	0.46599999	7.9299998
166	1	7	0.07999	5.4489999	-0.71899998	7.263
167	1	7	0.07999	6.6950002	-1.4220001	8.3190002
168	1	7	0.07999	6.954	-1.035	5.257
169	1	7	0.07999	6.552	-2.5439999	6.1199999
170	1	7	0.07999	8.7939997	-2.4530001	7.3200002
171	1	7	0.07999	9.1920004	-0.96600002	6.3969998
172	1	7	0.080733001	10.286	-2.71	5.2459998
173	1	7	0.080733001	8.8739996	-2.2809999	4.2259998
174	1	7	0.081754997	7.6269999	-4.276	5.0910001
175	1	7	0.081754997	8.9799995	-4.6469998	6.224
176	1	6	0.048076	10.513	-5.0040002	4.2529998
177	1	6	0.048076	9.1639996	-4.5760002	3.142
178	1	5	0.32006299	8.3059998	-6.7379999	3.3829999
179	1	8	-0.50260299	1.5470001	-15.631	2.053
180	1	4	0.111448	2.8970001	-15.654	2.4319999
181	1	4	-0.141039	3.4200001	-14.236	2.687
182	1	4	-0.142015	3.408	-13.388	1.404
183	1	4	-0.14318401	3.825	-11.93	1.655
184	1	4	-0.141854	5.323	-11.786	1.961
185	1	4	-0.141854	5.7210002	-10.309	2.0710001
186	1	4	-0.14318401	7.2150002	-10.162	2.3859999
187	1	4	-0.142015	7.6079998	-8.6829996	2.5079999
188	1	4	-0.141039	9.1239996	-8.4840002	2.6800001
189	1	4	0.111448	9.658	-8.9709997	4.0339999
190	1	8	-0.50260299	9.0019999	-8.3310003	5.0960002
191	1	6	0.078244001	10.753	-8.776	4.0900002
192	1	6	0.078244001	9.5200005	-10.067	4.131
193	1	7	0.085534997	9.6660004	-9.0089998	1.863
194	1	7	0.085534997	9.3509998	-7.4000001	2.5810001
195	1	7	0.081711002	7.3000002	-8.1520004	1.58
196	1	7	0.081711002	7.0640001	-8.2139997	3.3559999
197	1	7	0.07999	7.4330001	-10.686	3.3410001
198	1	7	0.07999	7.809	-10.638	1.575
199	1	7	0.07999	5.4959998	-9.7950001	1.1109999
200	1	7	0.07999	5.1259999	-9.8269997	2.878
201	1	7	0.07999	5.914	-12.265	1.149
202	1	7	0.07999	5.5599999	-12.293	2.9200001
203	1	7	0.07999	3.2249999	-11.505	2.49
204	1	7	0.07999	3.5880001	-11.344	0.74000001
205	1	7	0.081711002	4.0760002	-13.845	0.64200002
206	1	7	0.081711002	2.378	-13.379	0.986
207	1	7	0.085534997	4.4580002	-14.317	3.072
208	1	7	0.085534997	2.796	-13.75	3.4690001
209	1	6	0.078244001	3.4909999	-16.132999	1.625
210	1	6	0.078244001	3.0250001	-16.268999	3.352
211	1	1	-0.634013	2.1800001	-6.165	11.887
212	1	2	0.78108501	2.8740001	-5.6539998	10.969
213	1	3	-0.47193301	2.4909999	-5.7870002	9.5959997
214	1	4	0.022018	1.2970001	-6.5170002	9.1750002
215	1	4	-0.146964	1.53	-8.0279999	9.2670002
216	1	4	-0.143501	0.29800001	-8.8050003	8.7790003
217	1	4	-0.143099	0.43700001	-10.324	8.9759998
218	1	4	-0.141854	1.4	-10.965	7.9629998
219	1	4	-0.141854	1.5880001	-12.476	8.1920004
220	1	4	-0.143099	0.31400001	-13.327	8.0190001
221	1	4	-0.143501	-0.39300001	-13.182	6.6570001
222	1	4	-0.146964	0.48699999	-13.49	5.4330001
223	1	4	0.022018	0.98100001	-14.942	5.4039998
224	1	3	-0.47193301	1.683	-15.217	4.152
225	1	2	0.78108501	1	-15.435	2.9130001
226	1	1	-0.634013	-0.25799999	-15.401	2.8510001
227	1	5	0.32006299	2.7219999	-15.321	4.1690001
228	1	6	0.048076	1.683	-15.11	6.2470002
229	1	6	0.048076	0.12899999	-15.648	5.5190001
230	1	7	0.081754997	1.354	-12.797	5.3920002
231	1	7	0.081754997	-0.122	-13.296	4.5240002
232	1	7	0.080733001	-1.272	-13.863	6.645
233	1	7	0.080733001	-0.79699999	-12.152	6.5599999
234	1	7	0.07999	0.57800001	-14.394	8.1820002
235	1	7	0.07999	-0.40900001	-13.073	8.823
236	1	7	0.07999	2.3740001	-12.848	7.5009999
237	1	7	0.07999	1.978	-12.635	9.2209997
238	1	7	0.07999	1.049	-10.772	6.928
239	1	7	0.07999	2.401	-10.494	8.059
240	1	7	0.07999	0.77200001	-10.542	10.014
241	1	7	0.07999	-0.57200003	-10.768	8.8470001
242	1	7	0.080733001	-0.588	-8.4650002	9.3579998
243	1	7	0.080733001	0.106	-8.5799999	7.7069998
244	1	7	0.081754997	2.4130001	-8.2860003	8.6440001
245	1	7	0.081754997	1.749	-8.3050003	10.32
246	1	6	0.048076	0.43200001	-6.2160001	9.8059998
247	1	6	0.048076	1.062	-6.2480001	8.1219997
248	1	5	0.32006299	3.0599999	-5.2919998	8.8730001
249	1	8	-0.50260299	13.448	-0.98299998	8.651
250	1	4	0.111448	12.458	-0.73400003	9.6129999
251	1	4	-0.141039	11.246	-1.648	9.4020004
252	1	4	-0.142015	10.546	-1.363	8.0640001
253	1	4	-0.14318401	9.3940001	-2.3399999	7.7800002
254	1	4	-0.141854	8.1750002	-2.098	8.684
255	1	4	-0.141854	7.0040002	-3.0009999	8.2779999
256	1	4	-0.14318401	5.789	-2.7690001	9.1859999
257	1	4	-0.142015	4.6209998	-3.6830001	8.7849998
258	1	4	-0.141039	3.335	-3.3829999	9.5740004
259	1	4	0.111448	3.4219999	-3.766	11.059
260	1	8	-0.50260299	3.7320001	-5.125	11.213
261	1	6	0.078244001	2.4519999	-3.5380001	11.555
262	1	6	0.078244001	4.1960001	-3.1570001	11.569
263	1	7	0.085534997	3.0869999	-2.303	9.4899998
264	1	7	0.085534997	2.4979999	-3.95	9.1129999
265	1	7	0.081711002	4.4000001	-3.529	7.7059999
266	1	7	0.081711002	4.9109998	-4.7480001	8.9180002
267	1	7	0.07999	6.0819998	-2.977	10.237
268	1	7	0.07999	5.4710002	-1.706	9.1090002
269	1	7	0.07999	6.7210002	-2.7850001	7.224
270	1	7	0.07999	7.3179998	-4.0650001	8.3500004
271	1	7	0.07999	7.862	-1.034	8.6059999
272	1	7	0.07999	8.4449997	-2.313	9.7399998
273	1	7	0.07999	9.75	-3.3870001	7.8959999
274	1	7	0.07999	9.085	-2.2049999	6.7199998
275	1	7	0.081711002	10.166	-0.31799999	8.0500002
276	1	7	0.081711002	11.286	-1.462	7.2410002
277	1	7	0.085534997	10.538	-1.476	10.24
278	1	7	0.085534997	11.577	-2.7090001	9.4399996
279	1	6	0.078244001	12.143	0.329	9.5389996
280	1	6	0.078244001	12.871	-0.89099997	10.636
281	1	1	-0.634013	8.9300003	-13.492	11.783
282	1	2	0.78108501	7.9299998	-12.972	11.22
283	1	3	-0.47193301	8.0889997	-12.114	10.085
284	1	4	0.022018	9.3959999	-11.785	9.5190001
285	1	4	-0.146964	10.122	-10.766	10.404
286	1	4	-0.143501	11.476	-10.374	9.7919998
287	1	4	-0.143099	12.298	-9.4549999	10.71
288	1	4	-0.141854	11.755	-8.0170002	10.745
289	1	4	-0.141854	12.539	-7.1059999	11.707
290	1	4	-0.143099	14.021	-6.888	11.34
291	1	4	-0.143501	14.272	-6.3369999	9.9219999
292	1	4	-0.146964	13.562	-5.0089998	9.6070004
293	1	4	0.022018	14.029	-3.8559999	10.505
294	1	3	-0.47193301	13.436	-2.5940001	10.065
295	1	2	0.78108501	13.903	-1.877	8.9180002
296	1	1	-0.634013	14.865	-2.3110001	8.2299995
297	1	5	0.32006299	12.68	-2.164	10.644
298	1	6	0.048076	13.711	-4.0510001	11.551
299	1	6	0.048076	15.138	-3.773	10.492
300	1	7	0.081754997	12.461	-5.1269999	9.6879997
301	1	7	0.081754997	13.782	-4.7540002	8.5469999
302	1	7	0.080733001	15.367	-6.1960001	9.7910004
303	1	7	0.080733001	13.965	-7.0960002	9.1719999
304	1	7	0.07999	14.471	-6.198	12.086
305	1	7	0.07999	14.571	-7.8460002	11.45
306	1	7	0.07999	12.027	-6.1209998	11.765
307	1	7	0.07999	12.492	-7.5409999	12.729
308	1	7	0.07999	11.75	-7.585	9.7220001
309	1	7	0.07999	10.702	-8.0310001	11.096
310	1	7	0.07999	12.331	-9.8769999	11.738
311	1	7	0.07999	13.337	-9.4390001	10.318
312	1	7	0.080733001	12.068	-11.3	9.6160002
313	1	7	0.080733001	11.321	-9.8830004	8.8070002
314	1	7	0.081754997	9.4779997	-9.8669996	10.507
315	1	7	0.081754997	10.285	-11.202	11.413
316	1	6	0.048076	10.002	-12.711	9.4110003
317	1	6	0.048076	9.2510004	-11.35	8.5059996
318	1	5	0.32006299	7.23	-11.758	9.6090002
319	1	8	-0.50260299	-3.556	-10.718	12.627
320	1	4	0.111448	-2.767	-11.873	12.723
321	1	4	-0.141039	-1.303	-11.567	12.388
322	1	4	-0.142015	-1.136	-11.122	10.927
323	1	4	-0.14318401	0.30599999	-10.705	10.597
324	1	4	-0.141854	1.27	-11.899	10.54
325	1	4	-0.141854	2.664	-11.458	10.077
326	1	4	-0.14318401	3.632	-12.646	10.029
327	1	4	-0.142015	5.0300002	-12.199	9.5769997
328	1	4	-0.141039	5.9949999	-13.38	9.3760004
329	1	4	0.111448	6.3930001	-14.079	10.684
330	1	8	-0.50260299	6.9790001	-13.174	11.581
331	1	6	0.078244001	7.1040001	-14.906	10.458
332	1	6	0.078244001	5.5040002	-14.538	11.161
333	1	7	0.085534997	5.5359998	-14.125	8.6890001
334	1	7	0.085534997	6.9169998	-13.003	8.882
335	1	7	0.081711002	4.9390001	-11.666	8.6049995
336	1	7	0.081711002	5.454	-11.482	10.312
337	1	7	0.07999	3.694	-13.099	11.042
338	1	7	0.07999	3.24	-13.41	9.3210001
339	1	7	0.07999	2.589	-11.004	9.0640001
340	1	7	0.07999	3.059	-10.691	10.78
341	1	7	0.07999	0.87400001	-12.662	9.8330002
342	1	7	0.07999	1.3559999	-12.359	11.547
343	1	7	0.07999	0.66399997	-9.9639997	11.345
344	1	7	0.07999	0.29800001	-10.203	9.6040001
345	1	7	0.081711002	-1.4579999	-11.938	10.243
346	1	7	0.081711002	-1.794	-10.246	10.738
347	1	7	0.085534997	-0.71100003	-12.489	12.569
348	1	7	0.085534997	-0.92900002	-10.775	13.072
349	1	6	0.078244001	-3.161	-12.638	12.019
350	1	6	0.078244001	-2.8340001	-12.298	13.75
351	1	1	-0.634013	7.9299998	-6.1729999	18.468
352	1	2	0.78108501	8.3190002	-6.5019999	17.316
353	1	3	-0.47193301	7.5019999	-6.2600002	16.166
354	1	4	0.022018	6.184	-5.6329999	16.250999
355	1	4	-0.146964	5.1500001	-6.6279998	16.788
356	1	4	-0.143501	3.7509999	-5.9959998	16.834
357	1	4	-0.143099	2.7049999	-6.9120002	17.49
358	1	4	-0.141854	2.2880001	-8.0780001	16.577
359	1	4	-0.141854	1.284	-9.033	17.250999
360	1	4	-0.143099	-0.072999999	-8.401	17.620001
361	1	4	-0.143501	-0.82700002	-7.7360001	16.451
362	1	4	-0.146964	-1.1059999	-8.6569996	15.25
363	1	4	0.022018	-2.0120001	-9.8430004	15.606
364	1	3	-0.47193301	-2.3629999	-10.596	14.404
365	1	2	0.78108501	-3.342	-10.142	13.464
366	1	1	-0.634013	-3.9549999	-9.0559998	13.641
367	1	5	0.32006299	-1.928	-11.534	14.252
368	1	6	0.048076	-1.476	-10.52	16.304001
369	1	6	0.048076	-2.938	-9.4899998	16.111
370	1	7	0.081754997	-0.154	-9.0290003	14.815
371	1	7	0.081754997	-1.601	-8.0459995	14.466
372	1	7	0.080733001	-1.796	-7.348	16.836
373	1	7	0.080733001	-0.25600001	-6.8499999	16.1
374	1	7	0.07999	-0.71600002	-9.1859999	18.070999
375	1	7	0.07999	0.079000004	-7.645	18.419001
376	1	7	0.07999	1.114	-9.9029999	16.582001
377	1	7	0.07999	1.745	-9.4390001	18.177999
378	1	7	0.07999	1.87	-7.6880002	15.626
379	1	7	0.07999	3.184	-8.6789999	16.316
380	1	7	0.07999	3.096	-7.303	18.455
381	1	7	0.07999	1.813	-6.29	17.712999
382	1	7	0.080733001	3.8039999	-5.0570002	17.429001
383	1	7	0.080733001	3.4230001	-5.724	15.806
384	1	7	0.081754997	5.1420002	-7.52	16.127001
385	1	7	0.081754997	5.4429998	-6.9499998	17.811001
386	1	6	0.048076	6.237	-4.7340002	16.903
387	1	6	0.048076	5.8759999	-5.302	15.235
388	1	5	0.32006299	7.8920002	-6.4879999	15.224
389	1	8	-0.50260299	16.273001	-13.044	11.577
390	1	4	0.111448	16.351	-12.063	12.576
391	1	4	-0.141039	14.961	-11.517	12.919
392	1	4	-0.142015	14.328	-10.784	11.725
393	1	4	-0.14318401	12.89	-10.322	12.009
394	1	4	-0.141854	12.828	-9.1520004	13.001
395	1	4	-0.141854	11.392	-8.6359997	13.152
396	1	4	-0.14318401	11.325	-7.473	14.15
397	1	4	-0.142015	9.8839998	-6.967	14.309
398	1	4	-0.141039	9.79	-5.7090001	15.19
399	1	4	0.111448	10.101	-5.9710002	16.67
400	1	8	-0.50260299	9.2480001	-6.9499998	17.200001
401	1	6	0.078244001	9.9940004	-5.0219998	17.242001
402	1	6	0.078244001	11.152	-6.303	16.790001
403	1	7	0.085534997	10.482	-4.9289999	14.803
404	1	7	0.085534997	8.7589998	-5.3010001	15.113
405	1	7	0.081711002	9.4820004	-6.7080002	13.304
406	1	7	0.081711002	9.2419996	-7.7729998	14.726
407	1	7	0.07999	11.708	-7.823	15.133
408	1	7	0.07999	11.972	-6.6440001	13.79
409	1	7	0.07999	11.018	-8.2919998	12.162
410	1	7	0.07999	10.739	-9.4639997	13.508
411	1	7	0.07999	13.478	-8.3249998	12.639
412	1	7	0.07999	13.196	-9.4840002	13.995
413	1	7	0.07999	12.289	-11.176	12.392
414	1	7	0.07999	12.438	-9.9989996	11.045
415	1	7	0.081711002	14.955	-9.9099998	11.441
416	1	7	0.081711002	14.298	-11.472	10.853
417	1	7	0.085534997	15.069	-10.817	13.774
418	1	7	0.085534997	14.306	-12.357	13.239
419	1	6	0.078244001	17.000999	-11.235	12.219
420	1	6	0.078244001	16.822001	-12.486	13.492
421	1	1	-0.634013	5.4619999	-15.773	19.474001
422	1	2	0.78108501	5.164	-14.654	18.976999
423	1	3	-0.47193301	5.4790001	-14.348	17.615
424	1	4	0.022018	6.1609998	-15.289	16.729
425	1	4	-0.146964	7.6529999	-15.361	17.069
426	1	4	-0.143501	8.3900003	-16.309999	16.112
427	1	4	-0.143099	9.8640003	-16.516001	16.496
428	1	4	-0.141854	10.737	-15.295	16.16
429	1	4	-0.141854	12.203	-15.472	16.594999
430	1	4	-0.143099	12.96	-16.618999	15.897
431	1	4	-0.143501	12.971	-16.556	14.356
432	1	4	-0.146964	13.543	-15.255	13.765
433	1	4	0.022018	15.018	-15.035	14.123
434	1	3	-0.47193301	15.547	-13.87	13.417
435	1	2	0.78108501	15.899	-13.899	12.03
436	1	1	-0.634013	15.767	-14.951	11.35
437	1	5	0.32006299	15.735	-12.996	13.957
438	1	6	0.048076	15.11	-14.858	15.216
439	1	6	0.048076	15.622	-15.934	13.869
440	1	7	0.081754997	12.942	-14.381	14.093
441	1	7	0.081754997	13.444	-15.317	12.66
442	1	7	0.080733001	13.568	-17.413	13.975
443	1	7	0.080733001	11.939	-16.702	13.973
444	1	7	0.07999	14.005	-16.631001	16.27
445	1	7	0.07999	12.521	-17.591	16.207001
446	1	7	0.07999	12.745	-14.518	16.424
447	1	7	0.07999	12.23	-15.652	17.691999
448	1	7	0.07999	10.681	-15.072	15.074
449	1	7	0.07999	10.344	-14.405	16.694
450	1	7	0.07999	9.9429998	-16.756001	17.579
451	1	7	0.07999	10.235	-17.393	15.926
452	1	7	0.080733001	7.888	-17.302	16.139
453	1	7	0.080733001	8.3210001	-15.928	15.069
454	1	7	0.081754997	8.0810003	-14.339	16.993999
455	1	7	0.081754997	7.7779999	-15.72	18.113001
456	1	6	0.048076	5.6919999	-16.294001	16.816999
457	1	6	0.048076	6.0430002	-14.946	15.678
458	1	5	0.32006299	5.1539998	-13.434	17.225
459	1	8	-0.50260299	1.837	-3.694	21.77
460	1	4	0.111448	1.355	-4.973	22.084999
461	1	4	-0.141039	2.184	-6.0580001	21.391001
462	1	4	-0.142015	2.056	-5.9790001	19.861
463	1	4	-0.14318401	2.9630001	-6.987	19.138
464	1	4	-0.141854	2.4779999	-8.4370003	19.291
465	1	4	-0.141854	3.3299999	-9.3920002	18.447001
466	1	4	-0.14318401	2.8559999	-10.842	18.606001
467	1	4	-0.142015	3.7179999	-11.798	17.768999
468	1	4	-0.141039	3.1889999	-13.242	17.785
469	1	4	0.111448	3.3380001	-13.937	19.145
470	1	8	-0.50260299	4.677	-13.95	19.562
471	1	6	0.078244001	2.9530001	-14.979	19.070999
472	1	6	0.078244001	2.7249999	-13.42	19.910999
473	1	7	0.085534997	2.119	-13.252	17.485001
474	1	7	0.085534997	3.7479999	-13.831	17.025
475	1	7	0.081711002	3.7190001	-11.448	16.712999
476	1	7	0.081711002	4.7690001	-11.773	18.129
477	1	7	0.07999	2.9200001	-11.124	19.679001
478	1	7	0.07999	1.795	-10.918	18.280001
479	1	7	0.07999	3.2609999	-9.0979996	17.375999
480	1	7	0.07999	4.3930001	-9.3170004	18.766001
481	1	7	0.07999	1.4170001	-8.5089998	18.966999
482	1	7	0.07999	2.546	-8.743	20.357
483	1	7	0.07999	4.0050001	-6.8940001	19.514999
484	1	7	0.07999	2.9719999	-6.7249999	18.056999
485	1	7	0.081711002	0.99699998	-6.1420002	19.559999
486	1	7	0.081711002	2.3469999	-4.96	19.525999
487	1	7	0.085534997	1.823	-7.046	21.746
488	1	7	0.085534997	3.25	-5.9520001	21.688
489	1	6	0.078244001	0.294	-5.0479999	21.764
490	1	6	0.078244001	1.383	-5.131	23.188
491	1	1	-0.634013	13.262	-11.002	23.431
492	1	2	0.78108501	12.754	-11.517	22.4
493	1	3	-0.47193301	12.103	-10.705	21.417
494	1	4	0.022018	11.98	-9.2539997	21.545
495	1	4	-0.146964	10.9	-8.8959999	22.57
496	1	4	-0.143501	10.726	-7.3730001	22.676001
497	1	4	-0.143099	9.7469997	-6.9619999	23.788
498	1	4	-0.141854	8.2799997	-7.2309999	23.410999
499	1	4	-0.141854	7.2989998	-6.875	24.542999
500	1	4	-0.143099	7.2690001	-5.3850002	24.940001
501	1	4	-0.143501	6.973	-4.4050002	23.788
502	1	4	-0.146964	5.6550002	-4.665	23.035999
503	1	4	0.022018	4.4190001	-4.5170002	23.931999
504	1	3	-0.47193301	3.197	-4.6269999	23.138
505	1	2	0.78108501	2.7119999	-3.5650001	22.311001
506	1	1	-0.634013	3.3299999	-2.4690001	22.236
507	1	5	0.32006299	2.618	-5.493	23.222
508	1	6	0.048076	4.4180002	-5.323	24.695999
509	1	6	0.048076	4.434	-3.54	24.462999
510	1	7	0.081754997	5.665	-5.6739998	22.572001
511	1	7	0.081754997	5.5910001	-3.9289999	22.205999
512	1	7	0.080733001	6.9489999	-3.3740001	24.204
513	1	7	0.080733001	7.8119998	-4.4260001	23.061001
514	1	7	0.07999	6.5120001	-5.2490001	25.74
515	1	7	0.07999	8.2410002	-5.1079998	25.399
516	1	7	0.07999	6.2779999	-7.1960001	24.245001
517	1	7	0.07999	7.5619998	-7.4720001	25.443001
518	1	7	0.07999	8.0170002	-6.6789999	22.483999
519	1	7	0.07999	8.1490002	-8.3109999	23.193001
520	1	7	0.07999	10.003	-7.4910002	24.732
521	1	7	0.07999	9.882	-5.8740001	23.962
522	1	7	0.080733001	11.715	-6.9180002	22.906
523	1	7	0.080733001	10.385	-6.96	21.701
524	1	7	0.081754997	9.9440002	-9.3649998	22.254999
525	1	7	0.081754997	11.183	-9.3050003	23.563999
526	1	6	0.048076	12.959	-8.8190002	21.84
527	1	6	0.048076	11.7	-8.8280001	20.556
528	1	5	0.32006299	11.755	-11.165	20.546
529	1	8	-0.17965201	9.3339996	-21.777	17.707001
530	1	4	0.033011999	10.523	-21.316999	18.291
531	1	4	-0.14704099	10.4	-19.844	18.698
532	1	4	-0.14074799	10.207	-18.931	17.476
533	1	4	-0.143134	9.9720001	-17.464001	17.865999
534	1	4	-0.141854	11.238	-16.784	18.409
535	1	4	-0.141854	10.996	-15.291	18.659
536	1	4	-0.14318401	12.255	-14.612	19.209999
537	1	4	-0.142015	12.006	-13.119	19.469999
538	1	4	-0.141039	13.282	-12.368	19.888
539	1	4	0.111448	13.796	-12.756	21.281
540	1	8	-0.50260299	12.815	-12.543	22.26
541	1	6	0.078244001	14.706	-12.159	21.517
542	1	6	0.078244001	14.097	-13.824	21.296
543	1	7	0.085534997	14.084	-12.548	19.139
544	1	7	0.085534997	13.067	-11.277	19.882999
545	1	7	0.081711002	11.627	-12.651	18.535
546	1	7	0.081711002	11.22	-12.995	20.247
547	1	7	0.07999	12.545	-15.112	20.159
548	1	7	0.07999	13.085	-14.727	18.478001
549	1	7	0.07999	10.703	-14.801	17.702999
550	1	7	0.07999	10.164	-15.17	19.386999
551	1	7	0.07999	12.066	-16.903999	17.676001
552	1	7	0.07999	11.539	-17.263	19.365999
553	1	7	0.07999	9.1549997	-17.4	18.618999
554	1	7	0.07999	9.6350002	-16.917999	16.957001
555	1	7	0.081882998	11.09	-19.006001	16.804001
556	1	7	0.081882998	9.3190002	-19.277	16.903999
557	1	7	0.086544	11.328	-19.559	19.236
558	1	7	0.086544	9.5439997	-19.729	19.398001
559	1	6	0.078041002	11.353	-21.436001	17.562
560	1	6	0.078041002	10.773	-21.931999	19.184999
561	1	1	-0.71386099	-7.9060001	-0.89999998	-2.4319999
562	1	2	0.53873599	-6.6890001	-0.64600003	-2.6329999
563	1	3	-0.52746397	-6.0549998	-1.018	-3.8599999
564	1	4	0.027941	-6.7849998	-1.72	-4.9169998
565	1	4	-0.148238	-5.9200001	-1.928	-6.1700001
566	1	4	-0.143501	-5.4780002	-0.62300003	-6.8639998
567	1	4	-0.143099	-6.6240001	0.28999999	-7.335
568	1	4	-0.141854	-7.5539999	-0.389	-8.3500004
569	1	4	-0.141854	-8.5670004	0.611	-8.9209995
570	1	4	-0.14291599	-9.5089998	-0.07	-9.9209995
571	1	4	-0.139109	-10.522	0.93000001	-10.492
572	1	4	-0.124561	-11.462	0.249	-11.496
573	1	4	0.181427	-12.508	1.22	-12.048
574	1	3	-0.67776799	-11.872	2.234	-12.884
575	1	9	0.591254	-11.973	3.4760001	-12.629
576	1	1	-0.50973302	-12.072	4.684	-12.381
577	1	6	0.024636	-13.078	1.683	-11.209
578	1	6	0.024636	-13.23	0.65200001	-12.672
579	1	7	0.075430997	-10.873	-0.176	-12.338
580	1	7	0.075430997	-11.992	-0.588	-10.99
581	1	7	0.079465002	-11.121	1.362	-9.6610003
582	1	7	0.079465002	-9.974	1.755	-10.998
583	1	7	0.07999	-10.054	-0.89399999	-9.4110003
584	1	7	0.07999	-8.9110003	-0.50300002	-10.753
585	1	7	0.07999	-8.0229998	1.436	-9.4309998
586	1	7	0.07999	-9.165	1.044	-8.0880003
587	1	7	0.07999	-6.9489999	-0.81400001	-9.1809998
588	1	7	0.07999	-8.1079998	-1.2130001	-7.8530002
589	1	7	0.07999	-7.2080002	0.65499997	-6.4640002
590	1	7	0.07999	-6.165	1.184	-7.8109999
591	1	7	0.080733001	-4.8530002	-0.89200002	-7.744
592	1	7	0.080733001	-4.8239999	-0.043000001	-6.1799998
593	1	7	0.081754997	-6.473	-2.566	-6.8909998
594	1	7	0.081754997	-5.0100002	-2.4979999	-5.881
595	1	6	0.044599999	-7.0960002	-2.7160001	-4.5339999
596	1	6	0.044599999	-7.71	-1.1619999	-5.1750002
597	1	5	0.313476	-5.04	-0.80000001	-3.9690001
598	1	8	-0.17965201	8.6829996	-21.9	18.445999
599	1	4	0.033011999	8.2939997	-20.617001	18.856001
600	1	4	-0.14704099	9.4029999	-19.941999	19.672001
601	1	4	-0.14074799	9.6719999	-20.688	20.989
602	1	4	-0.143134	10.853	-20.094	21.774
603	1	4	-0.141854	10.524	-18.729	22.396
604	1	4	-0.141854	11.678	-18.236	23.278999
605	1	4	-0.143134	11.357	-16.868	23.893
606	1	4	-0.136663	12.519	-16.372	24.767
607	1	4	-0.168964	12.184	-15.072	25.518
608	1	4	0.086191997	12.053	-13.848	24.601
609	1	10	-0.68504202	13.226	-13.644	23.860001
610	1	11	0.37735099	13.901	-13.281	24.492001
611	1	6	0.068287	11.829	-12.948	25.216999
612	1	6	0.068287	11.201	-13.98	23.902
613	1	7	0.088896997	11.239	-15.203	26.089001
614	1	7	0.088896997	12.99	-14.874	26.257999