Title

63 atoms
62 bonds
113 angles
189 dihedrals
12 impropers

8 atom types
11 bond types
5 angle types
27 dihedral types
2 improper types
-3.872999907 96.12700009 xlo xhi
-6.453999996 93.546 ylo yhi
-5.041999817 94.95800018 zlo zhi
0.0 0.0 0.0 xy xz yz

Masses

1	15.99943
2	12.01078
3	1.007947
4	1.007947
5	12.01078
6	15.99943
7	15.99943
8	1.007947


Pair Coeffs

1	0.16846514	3.0251065
2	0.10884061	3.3795318
3	0.016409246	2.5832257
4	0.015779483	2.6445434
5	0.086879315	3.4806469
6	0.2102061	3.0398122
7	0.20947353	2.99716
8	1.2326e-05	0.53453923

Bond Coeffs

1 harmonic	366.7408841747	1.425895053732
2 harmonic	300.03137914615	1.451203938761
3 harmonic	264.62148576755	1.52190126495
4 harmonic	370.04670688625	1.093899492634
5 harmonic	301.15400723785	1.345741232799
6 harmonic	582.698766451	1.225198386222
7 harmonic	329.44145381095	1.523435958334
8 harmonic	279.1350963404	1.454628925034
9 harmonic	329.96998057905	1.427343958716
10 harmonic	543.5267831885	0.9716763312559
11 harmonic	385.7604595587	1.369745182308


Angle Coeffs

1 harmonic	53.20531626545	116.5475862634
2 harmonic	65.09061609600001	110.3538806181
3 harmonic	201.41175231035	127.4691416191
4 harmonic	57.8982893754	126.8062420451
5 harmonic	48.776492647595	115.6030999533


Dihedral Coeffs

1 fourier 1	0.1155372516788	3	0
2 fourier 1	0.1115525666802	3	0
3 fourier 1	0.3432490222662	1	0
4 fourier 1	0.0473758381877	3	0
5 fourier 1	0.457973137376	1	0
6 fourier 1	0.09223874044423	3	0
7 fourier 1	0.3159935921949	2	180
8 fourier 1	0.3247796806857	1	180
9 fourier 1	0.1040663847541	3	0
10 fourier 1	0.1918272375143	3	0
11 fourier 1	0.9202179876409	1	180
12 fourier 1	1.163809172478	2	180
13 fourier 1	0.1679186987369	1	180
14 fourier 1	2.779853741805	2	180
15 fourier 1	0.02664938770063	3	0
16 fourier 1	0.1911926717192	3	0
17 fourier 1	-0.3703352413219	2	0
18 fourier 1	0.4541676554336	1	0
19 fourier 1	0.1489710476446	2	0
20 fourier 1	0.02960027280666	3	180
21 fourier 1	0.9974165607242	2	180
22 fourier 1	0.3445382149273	3	0
23 fourier 1	0.1364556373303	1	0
24 fourier 1	0.3026390167484	3	0
25 fourier 1	2.687457892086	2	180
26 fourier 1	2.772607909663	2	180
27 fourier 1	0.09692684957115	1	0


Improper Coeffs

1 3.5	-1	2
2 0.3666666666666667	-1	2


Atoms

1	1	1	-0.176467	-2.5580001	0.57200003	0.94400001
2	1	2	0.032547001	-1.365	0.62599999	0.20999999
3	1	2	-0.145805	-0.671	-0.741	0.23
4	1	2	-0.13843	0.55199999	-0.81	-0.69999999
5	1	2	0.13482	1.743	0.017999999	-0.205
6	1	1	-0.49380001	1.545	1.374	-0.49000001
7	1	3	0.080477998	2.661	-0.33199999	-0.72899997
8	1	3	0.080477998	1.8890001	-0.13	0.889
9	1	4	0.088701002	0.87400001	-1.873	-0.75599998
10	1	4	0.088701002	0.27200001	-0.498	-1.73
11	1	4	0.089703001	-1.399	-1.512	-0.104
12	1	4	0.089703001	-0.37400001	-0.99400002	1.272
13	1	3	0.080123998	-1.572	0.94300002	-0.838
14	1	3	0.080123998	-0.708	1.386	0.68000001
15	1	5	0.76248401	2.3759999	1.873	-0.113
16	1	6	-0.55085099	2.3429999	3.0880001	-0.0060000001
17	1	2	-0.209153	3.6059999	1.118	0.29800001
18	1	2	-0.112846	3.431	-0.389	0.081
19	1	2	-0.092001997	4.691	-1.155	0.50199997
20	1	2	-0.25735599	4.5170002	-2.6619999	0.285
21	1	5	0.51769698	5.7459998	-3.4170001	0.69599998
22	1	6	-0.68120497	5.7789998	-4.632	0.58899999
23	1	4	0.114486	3.655	-3.029	0.884
24	1	4	0.114486	4.3150001	-2.8640001	-0.79000002
25	1	4	0.076017998	4.8969998	-0.95999998	1.5779999
26	1	4	0.076017998	5.5580001	-0.796	-0.096000001
27	1	4	0.084958002	2.5639999	-0.74800003	0.67799997
28	1	4	0.084958002	3.2249999	-0.58399999	-0.995
29	1	4	0.117849	3.8069999	1.3200001	1.372
30	1	4	0.117849	4.4679999	1.485	-0.301
31	1	1	-0.176467	-3.2279999	0.123	0.366
32	1	2	0.032659002	-2.677	0.068999998	-0.92199999
33	1	2	-0.140071	-2.8	1.436	-1.605
34	1	2	-0.16712099	-2.059	1.506	-2.9519999
35	1	2	0.085992001	-2.724	0.67699999	-4.0580001
36	1	7	-0.68381798	-2.4130001	-0.67900002	-3.904
37	1	8	0.379206	-2.885	-1.155	-4.6350002
38	1	3	0.070619002	-2.3399999	1.027	-5.0419998
39	1	3	0.070619002	-3.8269999	0.82599998	-4.0409999
40	1	4	0.092165999	-2.0510001	2.5680001	-3.2780001
41	1	4	0.092165999	-1	1.193	-2.826
42	1	4	0.089872003	-2.3610001	2.207	-0.93400002
43	1	4	0.089872003	-3.8729999	1.689	-1.747
44	1	3	0.080123998	-1.6109999	-0.248	-0.87199998
45	1	3	0.080123998	-3.2390001	-0.69099998	-1.503
46	1	5	0.51769698	6.6139998	-2.8959999	1.089
47	1	6	-0.68120497	6.7540002	-2.7880001	2.2969999
48	1	2	-0.25735599	7.619	-2.3010001	0.15000001
49	1	2	-0.092001997	8.9779997	-2.9949999	0.289
50	1	2	-0.110321	10	-2.404	-0.69400001
51	1	2	-0.219161	11.39	-3.0339999	-0.53500003
52	1	5	0.82471502	11.404	-4.467	-0.96899998
53	1	6	-0.55211401	11.451	-4.7550001	-2.1949999
54	1	7	-0.66455197	11.334	-5.4809999	-0.017999999
55	1	8	0.39540499	11.328	-6.454	-0.29699999
56	1	4	0.11888	11.724	-2.957	0.523
57	1	4	0.11888	12.116	-2.4649999	-1.155
58	1	4	0.084958002	10.09	-1.312	-0.50800002
59	1	4	0.084958002	9.6440001	-2.5420001	-1.739
60	1	4	0.076017998	9.3529997	-2.868	1.329
61	1	4	0.076017998	8.8520002	-4.0809999	0.089000002
62	1	4	0.114486	7.2480001	-2.4159999	-0.89099997
63	1	4	0.114486	7.7199998	-1.215	0.368

Bonds

1	1	1	2
2	2	1	31
3	3	2	3
4	4	2	13
5	4	2	14
6	3	3	4
7	4	3	11
8	4	3	12
9	3	4	5
10	4	4	9
11	4	4	10
12	1	5	6
13	4	5	7
14	4	5	8
15	5	6	15
16	6	15	16
17	7	15	17
18	3	17	18
19	4	17	29
20	4	17	30
21	3	18	19
22	4	18	27
23	4	18	28
24	3	19	20
25	4	19	25
26	4	19	26
27	7	20	21
28	4	20	23
29	4	20	24
30	6	21	22
31	8	21	46
32	1	31	32
33	3	32	33
34	4	32	44
35	4	32	45
36	3	33	34
37	4	33	42
38	4	33	43
39	3	34	35
40	4	34	40
41	4	34	41
42	9	35	36
43	4	35	38
44	4	35	39
45	10	36	37
46	6	46	47
47	7	46	48
48	3	48	49
49	4	48	62
50	4	48	63
51	3	49	50
52	4	49	60
53	4	49	61
54	3	50	51
55	4	50	58
56	4	50	59
57	7	51	52
58	4	51	56
59	4	51	57
60	6	52	53
61	11	52	54
62	10	54	55

Angles

1	1	5	4	10
2	1	4	5	7
3	1	33	34	41
4	5	27	18	28
5	5	7	5	8
6	1	32	33	42
7	5	40	34	41
8	1	50	49	61
9	1	46	48	63
10	4	51	52	53
11	1	34	33	43
12	5	44	32	45
13	1	31	32	33
14	1	5	4	9
15	1	19	18	27
16	1	3	4	10
17	1	6	5	7
18	5	11	3	12
19	4	21	46	47
20	1	18	19	26
21	5	13	2	14
22	1	21	20	23
23	1	48	49	61
24	4	22	21	46
25	1	48	49	50
26	1	49	50	51
27	1	15	17	29
28	1	3	2	13
29	1	19	18	28
30	1	17	18	27
31	1	3	4	9
32	1	50	51	56
33	1	20	19	26
34	1	19	20	23
35	1	4	5	6
36	1	31	32	44
37	5	29	17	30
38	4	20	21	22
39	5	58	50	59
40	1	34	35	39
41	5	23	20	24
42	1	2	3	12
43	4	21	46	48
44	5	25	19	26
45	1	4	5	8
46	3	53	52	54
47	1	33	34	40
48	1	17	18	28
49	1	49	48	62
50	1	35	34	41
51	1	19	20	24
52	1	18	19	25
53	1	33	32	44
54	5	56	51	57
55	1	32	33	34
56	1	15	17	18
57	1	34	33	42
58	2	52	54	55
59	1	36	35	38
60	1	1	2	13
61	1	34	35	36
62	4	51	52	54
63	1	4	3	12
64	1	18	17	30
65	5	42	33	43
66	2	35	36	37
67	1	2	3	4
68	1	21	20	24
69	1	49	50	59
70	1	3	2	14
71	1	51	50	59
72	1	19	20	21
73	1	6	5	8
74	1	20	19	25
75	1	33	34	35
76	5	60	49	61
77	2	1	31	32
78	1	32	33	43
79	1	35	34	40
80	1	31	32	45
81	1	4	3	11
82	4	6	15	17
83	2	5	6	15
84	1	52	51	57
85	5	9	4	10
86	1	1	2	3
87	1	33	32	45
88	1	3	4	5
89	4	16	15	17
90	1	52	51	56
91	3	6	15	16
92	1	36	35	39
93	1	2	3	11
94	1	1	2	14
95	4	20	21	46
96	1	49	48	63
97	1	17	18	19
98	2	2	1	31
99	1	15	17	30
100	1	48	49	60
101	5	38	35	39
102	1	50	51	52
103	1	34	35	38
104	1	46	48	49
105	1	50	49	60
106	4	47	46	48
107	1	18	19	20
108	1	46	48	62
109	1	49	50	58
110	1	51	50	58
111	1	50	51	57
112	5	62	48	63
113	1	18	17	29

Dihedrals

1	1	21	20	19	25
2	15	6	15	17	30
3	16	42	33	32	44
4	9	51	50	49	61
5	18	53	52	51	57
5	19	53	52	51	57
5	20	53	52	51	57
6	16	25	19	18	27
7	16	8	5	4	10
8	12	5	6	15	16
8	13	5	6	15	16
9	9	19	18	17	30
10	9	49	50	51	56
11	9	18	19	20	24
12	9	48	49	50	59
13	16	9	4	3	11
14	16	58	50	49	61
15	15	24	20	21	46
16	16	40	34	33	42
17	9	50	49	48	62
18	1	33	34	35	36
19	16	12	3	2	13
20	9	32	33	34	40
21	18	53	52	51	56
21	19	53	52	51	56
21	20	53	52	51	56
22	2	36	35	34	41
22	3	36	35	34	41
23	18	47	46	48	63
23	19	47	46	48	63
23	20	47	46	48	63
24	16	28	18	17	30
25	9	48	49	50	58
26	4	3	2	1	31
27	16	23	20	19	26
28	1	46	48	49	60
29	4	14	2	1	31
30	4	1	31	32	45
31	16	27	18	17	30
32	1	52	51	50	59
33	21	20	21	46	48
34	15	21	46	48	63
35	16	56	51	50	59
36	9	35	34	33	42
37	9	4	3	2	13
38	9	3	4	5	7
39	4	7	5	6	15
40	16	41	34	33	43
41	16	57	51	50	58
42	16	42	33	32	45
43	1	31	32	33	34
44	1	46	48	49	50
45	1	52	51	50	58
46	9	5	4	3	12
47	1	15	17	18	19
48	16	61	49	48	62
49	1	3	4	5	6
50	6	2	3	4	5
50	7	2	3	4	5
50	8	2	3	4	5
51	2	6	5	4	10
51	3	6	5	4	10
52	2	1	2	3	11
52	3	1	2	3	11
53	16	7	5	4	10
54	18	16	15	17	29
54	19	16	15	17	29
54	20	16	15	17	29
55	22	34	35	36	37
55	23	34	35	36	37
56	16	12	3	2	14
57	9	3	4	5	8
58	16	40	34	33	43
59	16	23	20	19	25
60	17	50	51	52	53
61	16	11	3	2	13
62	17	19	20	21	22
63	2	31	32	33	43
63	3	31	32	33	43
64	15	6	15	17	29
65	9	33	34	35	38
66	9	50	49	48	63
67	16	8	5	4	9
68	6	48	49	50	51
68	7	48	49	50	51
68	8	48	49	50	51
69	6	17	18	19	20
69	7	17	18	19	20
69	8	17	18	19	20
70	9	19	18	17	29
71	24	37	36	35	39
72	21	22	21	46	47
73	9	2	3	4	10
74	16	38	35	34	41
75	16	7	5	4	9
76	9	4	3	2	14
77	6	32	33	34	35
77	7	32	33	34	35
77	8	32	33	34	35
78	1	46	48	49	61
79	9	35	34	33	43
80	2	36	35	34	40
80	3	36	35	34	40
81	17	16	15	17	18
82	1	49	50	51	52
83	16	28	18	17	29
84	16	56	51	50	58
85	16	24	20	19	26
86	16	60	49	48	62
87	15	54	52	51	57
88	16	10	4	3	12
89	15	23	20	21	46
90	16	27	18	17	29
91	16	41	34	33	42
92	15	6	15	17	18
93	18	16	15	17	30
93	19	16	15	17	30
93	20	16	15	17	30
94	9	34	33	32	44
95	9	18	19	20	23
96	9	5	4	3	11
97	17	47	46	48	49
98	16	61	49	48	63
99	4	1	31	32	33
100	16	60	49	48	63
101	9	17	18	19	26
102	16	11	3	2	14
103	1	21	20	19	26
104	16	10	4	3	11
105	21	22	21	46	48
106	25	51	52	54	55
107	16	39	35	34	41
108	18	47	46	48	62
108	19	47	46	48	62
108	20	47	46	48	62
109	2	6	5	4	9
109	3	6	5	4	9
110	18	22	21	20	23
110	19	22	21	20	23
110	20	22	21	20	23
111	15	21	46	48	49
112	9	20	19	18	27
113	15	54	52	51	56
114	1	15	17	18	27
115	10	4	5	6	15
115	11	4	5	6	15
116	16	26	19	18	28
117	5	2	1	31	32
118	2	31	32	33	42
118	3	31	32	33	42
119	15	21	46	48	62
120	15	19	20	21	46
121	26	53	52	54	55
121	27	53	52	54	55
122	16	24	20	19	25
123	15	50	51	52	54
124	16	59	50	49	60
125	1	1	2	3	4
126	18	22	21	20	24
126	19	22	21	20	24
126	20	22	21	20	24
127	16	57	51	50	59
128	16	25	19	18	28
129	14	5	6	15	17
130	9	51	50	49	60
131	1	18	19	20	21
132	16	39	35	34	40
133	9	20	19	18	28
134	9	32	33	34	41
135	9	34	33	32	45
136	9	49	50	51	57
137	9	2	3	4	9
138	4	13	2	1	31
139	4	1	31	32	44
140	1	15	17	18	28
141	16	26	19	18	27
142	16	9	4	3	12
143	24	37	36	35	38
144	4	8	5	6	15
145	16	38	35	34	40
146	16	58	50	49	60
147	16	59	50	49	61
148	16	43	33	32	45
149	9	33	34	35	39
150	21	20	21	46	47
151	16	43	33	32	44
152	9	17	18	19	25
153	2	1	2	3	12
153	3	1	2	3	12

Impropers

44	1	15	6	16	17
142	2	21	20	22	46
164	1	52	53	54	51
173	2	21	22	46	20
201	2	21	46	20	22
214	1	15	16	17	6
280	2	46	48	21	47
309	2	46	21	47	48
332	1	52	54	51	53
358	1	52	51	53	54
387	2	46	47	48	21
408	1	15	17	6	16
