Title

17250 atoms
18375 bonds
29000 angles
43750 dihedrals
26250 impropers

12 atom types
17 bond types
10 angle types
19 dihedral types
3 improper types
-13.61145274 144.0895715 xlo xhi
-14.4386897 143.5216278 ylo yhi
-14.74548713 144.052874 zlo zhi
0.0 0.0 0.0 xy xz yz

Masses

1	12.01078
2	15.99943
3	14.00672
4	1.007947
5	12.01078
6	1.007947
7	1.007947
8	15.99943
9	1.007947
10	12.01078
11	15.99943
12	1.007947


Pair Coeffs

1	0.086879315	3.4806469
2	0.2102061	3.0398122
3	0.16769152	3.206876
4	0.015611343	2.5725815
5	0.10884061	3.3795318
6	0.014090815	1.1034277
7	0.015779483	2.6445434
8	0.16846514	3.0251065
9	0.013106998	2.4536265
10	0.21	3.3996695
11	0.20947353	2.99716
12	1.2326e-05	0.53453923

Bond Coeffs

1 harmonic	582.698766451	1.225198386222
2 harmonic	492.76746816345	1.381897776683
3 harmonic	279.1350963404	1.454628925034
4 harmonic	390.03554688505	1.390160554689
5 harmonic	505.144496193	1.019481865027
6 harmonic	360.7852444772	1.387193227181
7 harmonic	397.2545789619	1.085358495916
8 harmonic	289.73813263395	1.498646816465
9 harmonic	370.04670688625	1.093899492634
10 harmonic	301.15400723785	1.345741232799
11 harmonic	425.69104206635	1.362945806494
12 harmonic	382.5450169811	1.379244394267
13 harmonic	505.481965552	1.304826179986
14 harmonic	300.03137914615	1.451203938761
15 harmonic	602.81384337	1.196112346392
16 harmonic	385.7604595587	1.369745182308
17 harmonic	543.5267831885	0.9716763312559


Angle Coeffs

1 harmonic	55.42182150775	117.3465570514
2 harmonic	63.44422595415	115.5071327674
3 harmonic	57.8982893754	126.8062420451
4 harmonic	34.066775159195	129.1835929926
5 harmonic	53.20531626545	116.5475862634
6 harmonic	65.09061609600001	110.3538806181
7 harmonic	201.41175231035	127.4691416191
8 harmonic	48.776492647595	115.6030999533
9 harmonic	55.07882548015	112.8714009681
10 harmonic	33.56981613361	180


Dihedral Coeffs

1 fourier 1	1.193093382682	2	180
2 fourier 1	1.809047390003	2	180
3 fourier 1	-0.04816277792592	1	0
4 fourier 1	3.101948770557	2	180
5 fourier 1	-0.4252153282372	1	0
6 fourier 1	2.348375642009	2	180
7 fourier 1	1.256156174911	1	0
8 fourier 1	0.9974165607242	2	180
9 fourier 1	3.661930099076	2	180
10 fourier 1	0.02664938770063	3	0
11 fourier 1	2.779853741805	2	180
12 fourier 1	1.532232714475	2	180
13 fourier 1	0.4860993122944	2	180
14 fourier 1	0.8916986138746	1	0
15 fourier 1	1.550515418264	2	180
16 fourier 1	6.736762477654	2	180
17 fourier 1	0.457973137376	1	0
18 fourier 1	0	1	0
19 fourier 1	0.8283030590042	2	180


Improper Coeffs

1 0.3333333333333333	-1	2
2 0.3666666666666667	-1	2
3 3.5	-1	2


Atoms

1	3	1	0.57148582	1.9965494	6.4522526	6.9240875
2	3	2	-0.60915381	1.0753004	7.3087467	6.9907902
3	3	3	-0.50752753	2.0343199	5.3298683	7.8131768
4	3	1	0.20620519	0.95595242	4.9524113	8.6859562
5	3	1	-0.37892386	1.2287098	4.3484893	9.8543823
6	3	4	0.21720174	2.2542189	4.1666974	10.151655
7	3	1	-0.14158118	0.13673198	3.9378127	10.761791
8	3	4	0.21541302	0.38646771	3.4550039	11.698451
9	3	1	-0.24482043	-1.1446999	4.15931	10.423739
10	3	5	-0.050533239	-2.2659238	3.7086449	11.320971
11	3	1	-0.24482048	-2.6739585	2.3025343	10.975778
12	3	1	-0.14158116	-2.0842691	1.2505624	11.568327
13	3	4	0.215413	-1.3219087	1.3980408	12.323953
14	3	1	-0.36673576	-2.462161	-0.12709081	11.190954
15	3	4	0.21720175	-1.9803653	-0.95901374	11.689868
16	3	1	0.23654859	-3.3728578	-0.34629098	10.228237
17	3	3	-0.49570557	-3.7317208	-1.6961461	9.8842581
18	3	1	0.83393288	-4.137046	-2.1121822	8.5747137
19	3	2	-0.59559321	-4.0179569	-1.3509394	7.5794132
20	3	6	0.32478732	-3.6215649	-2.4427629	10.606671
21	3	1	-0.36673576	-4.032016	0.81821396	9.5807303
22	3	4	0.21720172	-4.8097056	0.67095289	8.8428508
23	3	1	-0.14158118	-3.6960885	2.0660038	9.9292504
24	3	4	0.215413	-4.1872542	2.9048766	9.451571
25	3	7	0.12625888	-3.1352203	4.3901086	11.202937
26	3	7	0.12625888	-1.9599815	3.7748418	12.389215
27	3	1	-0.14158115	-1.4528013	4.784707	9.1150968
28	3	4	0.215413	-2.4824385	4.9280638	8.812194
29	3	1	-0.37892395	-0.46361863	5.1566761	8.2934834
30	3	4	0.21720175	-0.71323321	5.5758511	7.3286327
31	3	6	0.32162106	2.9364738	4.804857	7.8743942
32	4	8	-0.43301803	-4.5046056	-3.0836048	8.4340579
33	4	1	0.28013426	-4.4353387	-3.7224985	7.197402
34	4	1	-0.18943375	-3.8907419	-3.1091128	6.1352093
35	4	4	0.21384709	-3.4994362	-2.1032734	6.2233236
36	4	1	-0.14230077	-3.8244714	-3.8002809	4.829384
37	4	4	0.20827705	-3.4121803	-3.2568683	3.9930319
38	4	1	0.20383151	-4.2983305	-5.0588136	4.7006125
39	4	3	-0.56476218	-4.2792329	-5.7789005	3.4561013
40	4	1	0.42211449	-3.5692831	-5.4960036	2.4047029
41	4	1	-0.27558437	-3.6682919	-6.3269172	1.1882865
42	4	1	-0.17902154	-2.914054	-6.036088	0.11385245
43	4	4	0.20950393	-2.2316191	-5.1945081	0.12710999
44	4	1	-0.17902152	-3.0032899	-6.8588813	-1.1102808
45	4	4	0.20950393	-2.3806149	-6.5945942	-1.9553838
46	4	1	-0.27558434	-3.8414232	-7.9113969	-1.1645523
47	4	1	0.42211446	-3.957143	-8.7572214	-2.3706531
48	4	3	-0.56476206	-3.2620068	-8.4989633	-3.4397851
49	4	1	0.20383154	-3.2688209	-9.2426264	-4.6707777
50	4	1	-0.14029488	-3.7543824	-10.499555	-4.768882
51	4	4	0.20827703	-4.1588459	-11.02281	-3.9151408
52	4	1	-0.24052815	-3.7151255	-11.214947	-6.062358
53	4	4	0.21289335	-4.1149832	-12.217835	-6.1286514
54	4	1	0.17588772	-3.1852355	-10.627929	-7.1422836
55	4	8	-0.017558696	-3.1529275	-11.310744	-8.355725
56	4	1	-0.24052814	-2.6348992	-9.2582468	-7.0376183
57	4	4	0.21289335	-2.1997391	-8.7816923	-7.9064206
58	4	1	-0.14029488	-2.672683	-8.6070241	-5.868244
59	4	4	0.20827708	-2.2669365	-7.6055066	-5.7990448
60	4	9	0.15086442	-4.6574029	-9.5802202	-2.3483154
61	4	1	-0.17902158	-4.6731236	-8.2335745	0.019046052
62	4	4	0.20950393	-5.351879	-9.0772462	-0.0067846973
63	4	1	-0.17902152	-4.5922737	-7.4888594	1.1283686
64	4	4	0.2095039	-5.2097753	-7.7424115	1.9814713
65	4	9	0.15086442	-2.8740286	-4.6663614	2.4090638
66	4	1	-0.14230075	-4.9081054	-5.7201406	5.8764161
67	4	4	0.20827703	-5.3044867	-6.7234038	5.782252
68	4	1	-0.18943371	-4.9703834	-5.0918291	7.05675
69	4	4	0.2138471	-5.4154996	-5.5869371	7.9101365
70	1	1	0.57148588	2.794678	6.5909167	6.2072222
71	1	2	-0.60915387	3.5511497	5.6223514	5.9353307
72	1	3	-0.50752747	3.0012177	7.8852801	5.6247543
73	1	1	0.2062052	3.9327384	8.1633496	4.5639214
74	1	1	-0.37892392	4.1593156	7.2820701	3.5714225
75	1	4	0.21720174	3.6386471	6.3353614	3.5348716
76	1	1	-0.14158118	5.0960567	7.6136659	2.4777615
77	1	4	0.21541302	5.2589874	6.8893489	1.6893064
78	1	1	-0.24482043	5.7269184	8.8002745	2.4598835
79	1	5	-0.050533239	6.6492691	9.1645161	1.3292203
80	1	1	-0.25925374	5.875292	9.8126973	0.21353813
81	1	1	-0.18664642	5.6668125	11.140663	0.20201683
82	1	4	0.20154327	6.0757482	11.770729	0.98262637
83	1	1	-0.25861099	4.8694109	11.76254	-0.87446848
84	1	4	0.20921019	4.7292292	12.836169	-0.85836675
85	1	1	0.44150829	4.3301899	11.001135	-1.8504668
86	1	3	-0.3452239	3.5457412	11.555558	-2.9189386
87	1	10	0.61513412	3.2875662	12.795951	-3.0506898
88	1	2	-0.30186114	3.0365549	14.001501	-3.1793203
89	1	1	-0.25861102	4.548363	9.5378376	-1.8253654
90	1	4	0.2092102	4.114685	8.9160799	-2.598373
91	1	1	-0.18664646	5.2746367	8.9751538	-0.85144218
92	1	4	0.2015433	5.4201248	7.9024406	-0.84482818
93	1	7	0.12625888	7.1712412	8.2583542	0.94873416
94	1	7	0.12625888	7.4447429	9.8506807	1.6956906
95	1	1	-0.14158115	5.4494656	9.786036	3.5314595
96	1	4	0.215413	5.9304911	10.755726	3.5156817
97	1	1	-0.37892395	4.6009968	9.4858804	4.5219676
98	1	4	0.21720175	4.4058027	10.213406	5.2988564
99	1	6	0.321621	2.5124996	8.6917173	6.0735569
100	2	8	-0.017558677	-2.7557111	-10.886264	-9.1856105
101	2	1	0.17588773	-2.1419418	-9.6359023	-9.1491067
102	2	1	-0.2405282	-2.0573154	-8.942999	-8.0026996
103	2	4	0.21289335	-2.4684138	-9.346898	-7.0864503
104	2	1	-0.14029488	-1.4037061	-7.6172973	-7.9804323
105	2	4	0.20827705	-1.3892799	-7.0786365	-7.0442873
106	2	1	0.20383151	-0.87520944	-7.0992218	-9.1106964
107	2	3	-0.56476218	-0.24213324	-5.808368	-9.1592671
108	2	1	0.42211449	0.18721254	-5.1138938	-8.1470242
109	2	1	-0.27558437	0.80775266	-3.7909095	-8.3563601
110	2	1	-0.17902154	1.2653516	-3.0906244	-7.3046838
111	2	4	0.20950393	1.1848504	-3.4856339	-6.2995271
112	2	1	-0.17902152	1.8876466	-1.7652121	-7.4999121
113	2	4	0.20950393	2.2458565	-1.2302153	-6.6282986
114	2	1	-0.27558434	2.0050918	-1.2407567	-8.7346704
115	2	1	0.42211446	2.6215932	0.080811034	-8.9684947
116	2	3	-0.56476206	3.0586276	0.80120381	-7.9761293
117	2	1	0.20383154	3.6870552	2.0917545	-8.0629138
118	2	1	-0.11042762	4.2027013	2.5847343	-9.209943
119	2	4	0.20827703	4.179993	2.0235864	-10.132682
120	2	1	-0.36970893	4.8520528	3.9130496	-9.2253061
121	2	4	0.217372	5.2536336	4.2990023	-10.153444
122	2	1	0.30595776	4.9475983	4.6309138	-8.0995805
123	2	11	-0.64744049	5.5612385	5.8806634	-8.1250494
124	2	12	0.43773049	5.6451083	6.4403487	-7.2856543
125	2	1	-0.36970893	4.4007227	4.089777	-6.8366046
126	2	4	0.21737203	4.4798882	4.6636646	-5.9210967
127	2	1	-0.1104276	3.8093117	2.8888298	-6.8197484
128	2	4	0.20827708	3.4128813	2.4985681	-5.8906587
129	2	9	0.15086442	2.6733253	0.44453777	-9.9848198
130	2	1	-0.17902158	1.500372	-2.0122552	-9.8958195
131	2	4	0.20950393	1.5861056	-1.6059298	-10.895919
132	2	1	-0.17902152	0.93610262	-3.2137732	-9.7194922
133	2	4	0.2095039	0.57467185	-3.7582208	-10.582841
134	2	9	0.15086442	0.12471588	-5.5025839	-7.1392404
135	2	1	-0.14029486	-0.98617175	-7.8661059	-10.371804
136	2	4	0.20827703	-0.57948534	-7.4549591	-11.287051
137	2	1	-0.24052812	-1.5808885	-9.0649582	-10.390623
138	2	4	0.21289335	-1.6540346	-9.6182336	-11.318933
139	3	1	0.57148582	7.5973516	5.8792216	31.020264
140	3	2	-0.60915381	7.8064785	6.5191933	29.955636
141	3	3	-0.50752753	6.8567418	6.4566281	32.101815
142	3	1	0.20620519	6.112716	7.6833684	32.008929
143	3	1	-0.37892386	5.9743205	8.4591424	33.096753
144	3	4	0.21720174	6.4387856	8.1777581	34.033867
145	3	1	-0.14158118	5.201794	9.7173983	33.029991
146	3	4	0.21541302	5.1089236	10.324056	33.922261
147	3	1	-0.24482043	4.6226958	10.096757	31.87841
148	3	5	-0.050533239	3.7996522	11.35496	31.809195
149	3	1	-0.24482048	2.3647118	11.056006	32.14738
150	3	1	-0.14158116	1.9309909	11.116029	33.417725
151	3	4	0.215413	2.6021779	11.405727	34.217411
152	3	1	-0.36673576	0.53012542	10.77875	33.744772
153	3	4	0.21720175	0.20094295	10.844482	34.774556
154	3	1	0.23654859	-0.31749939	10.374984	32.784175
155	3	3	-0.49570557	-1.6793023	10.060907	33.124852
156	3	1	0.83393288	-2.4731048	9.0806569	32.445685
157	3	2	-0.59559321	-1.9610985	8.2815576	31.618892
158	3	6	0.32478732	-2.1022967	10.514863	33.965358
159	3	1	-0.36673576	0.16061741	10.318923	31.37773
160	3	4	0.21720172	-0.51563188	10.052051	30.576219
161	3	1	-0.14158118	1.4271529	10.633307	31.080504
162	3	4	0.215413	1.7606581	10.591414	30.050869
163	3	7	0.12625888	3.861245	11.785417	30.786984
164	3	7	0.12625888	4.2101099	12.126794	32.498343
165	3	1	-0.14158115	4.7345334	9.2217059	30.686616
166	3	4	0.215413	4.2353592	9.4946867	29.765334
167	3	1	-0.37892395	5.4343641	8.0822121	30.747302
168	3	4	0.21720175	5.4702334	7.4420443	29.876756
169	3	6	0.32162106	6.9311024	5.9841863	33.031619
170	4	8	-0.43301803	-3.4939685	9.0003466	32.669142
171	4	1	0.28013426	-4.197805	7.8141903	32.469271
172	4	1	-0.18943375	-3.5860191	6.7249496	31.979012
173	4	4	0.21384709	-2.5333031	6.7535628	31.726887
174	4	1	-0.14230077	-4.3465155	5.4734344	31.772518
175	4	4	0.20827705	-3.8243667	4.6328454	31.341778
176	4	1	0.20383151	-5.6583665	5.4139663	32.089598
177	4	3	-0.56476218	-6.4574706	4.2340897	31.897187
178	4	1	0.42211449	-6.0238544	3.0235455	31.707298
179	4	1	-0.27558437	-6.9732586	1.9100883	31.510489
180	4	1	-0.17902154	-6.5130143	0.65901213	31.334852
181	4	4	0.20950393	-5.4488166	0.45497213	31.333886
182	4	1	-0.17902152	-7.4517953	-0.46470862	31.136367
183	4	4	0.20950393	-7.0446196	-1.4581476	30.998317
184	4	1	-0.27558434	-8.7810043	-0.24939598	31.12959
185	4	1	0.42211446	-9.7499223	-1.3479176	30.934815
186	4	3	-0.56476206	-9.3477076	-2.5698937	30.740001
187	4	1	0.20383154	-10.177881	-3.7287973	30.549792
188	4	1	-0.14029488	-11.48939	-3.7559816	30.873007
189	4	4	0.20827703	-11.987685	-2.9014445	31.306284
190	4	1	-0.24052815	-12.282295	-4.9870721	30.667763
191	4	4	0.21289335	-13.333409	-4.9923369	30.923097
192	4	1	0.17588772	-11.703266	-6.0880506	30.173612
193	4	8	-0.017558696	-12.459147	-7.2424368	29.984514
194	4	1	-0.24052814	-10.262904	-6.0708765	29.83462
195	4	4	0.21289335	-9.7887129	-6.9603853	29.440663
196	4	1	-0.14029488	-9.543671	-4.9561084	30.016143
197	4	4	0.20827708	-8.4899443	-4.9514816	29.766955
198	4	9	0.15086442	-10.802359	-1.101849	30.930752
199	4	1	-0.17902158	-9.2899371	1.1289401	31.323513
200	4	4	0.20950393	-10.35606	1.320089	31.322005
201	4	1	-0.17902152	-8.4399567	2.1471429	31.503875
202	4	4	0.2095039	-8.8341029	3.1464321	31.643341
203	4	9	0.15086442	-4.9639926	2.8037793	31.717282
204	4	1	-0.14230075	-6.3249182	6.6257406	32.617807
205	4	4	0.20827703	-7.3793712	6.5948485	32.862136
206	4	1	-0.18943371	-5.6358875	7.758686	32.800873
207	4	4	0.2138471	-6.1334342	8.6372271	33.190927
208	1	1	0.57148588	8.0203268	4.8899878	31.132699
209	1	2	-0.60915387	7.5930875	4.1398208	32.048673
210	1	3	-0.50752747	9.0895074	4.4788657	30.269486
211	1	1	0.2062052	9.6386361	3.1495498	30.227097
212	1	1	-0.37892392	8.8656308	2.0586681	30.386737
213	1	4	0.21720174	7.7997098	2.1470608	30.543861
214	1	1	-0.14158118	9.4556116	0.70652039	30.30216
215	1	4	0.21541302	8.8123767	-0.15517026	30.430927
216	1	1	-0.24482043	10.768483	0.55202909	30.059574
217	1	5	-0.050533239	11.370767	-0.8198481	29.929156
218	1	1	-0.25925374	11.280701	-1.2951904	28.504423
219	1	1	-0.18664642	12.251519	-1.0068538	27.620418
220	1	4	0.20154327	13.128868	-0.44957916	27.925813
221	1	1	-0.25861099	12.134055	-1.4408871	26.213571
222	1	4	0.20921019	12.938945	-1.2001101	25.530367
223	1	1	0.44150829	11.043415	-2.1199195	25.798253
224	1	3	-0.3452239	10.879245	-2.5634161	24.441516
225	1	10	0.61513412	11.729948	-2.3661199	23.514173
226	1	2	-0.30186114	12.556605	-2.1748179	22.612537
227	1	1	-0.25861102	9.9695416	-2.4212906	26.770591
228	1	4	0.2092102	9.0868107	-2.9585603	26.447593
229	1	1	-0.18664646	10.078417	-2.031023	28.046698
230	1	4	0.2015433	9.281197	-2.254864	28.744021
231	1	7	0.12625888	10.847183	-1.5373711	30.599511
232	1	7	0.12625888	12.432068	-0.80057556	30.262577
233	1	1	-0.14158115	11.613177	1.7511445	29.846043
234	1	4	0.215413	12.666974	1.6410277	29.623965
235	1	1	-0.37892395	11.078933	2.975823	29.922498
236	1	4	0.21720175	11.705109	3.8441038	29.764566
237	1	6	0.321621	9.5617427	5.223712	29.710194
238	2	8	-0.017558677	-12.041432	-8.0874469	29.612834
239	2	1	0.17588773	-10.676106	-8.1775762	29.349755
240	2	1	-0.2405282	-9.8599026	-7.1371146	29.579489
241	2	4	0.21289335	-10.253081	-6.2083017	29.972384
242	2	1	-0.14029488	-8.4136553	-7.2481561	29.29449
243	2	4	0.20827705	-7.7992707	-6.3753633	29.460308
244	2	1	0.20383151	-7.9007201	-8.4016213	28.813217
245	2	3	-0.56476218	-6.506753	-8.5681888	28.499276
246	2	1	0.42211449	-5.524546	-7.8134143	28.895323
247	2	1	-0.27558437	-4.139583	-8.1066007	28.476875
248	2	1	-0.17902154	-3.1301968	-7.3312599	28.907926
249	2	4	0.20950393	-3.3196308	-6.4891875	29.562053
250	2	1	-0.17902152	-1.7397909	-7.6128908	28.496176
251	2	4	0.20950393	-0.95187714	-6.9665095	28.864454
252	2	1	-0.27558434	-1.4648459	-8.650774	27.683354
253	2	1	0.42211446	-0.087583439	-8.9631158	27.251058
254	2	3	-0.56476206	0.91652189	-8.2253654	27.62822
255	2	1	0.20383154	2.3009378	-8.422366	27.292724
256	2	1	-0.11042762	2.7833423	-9.5874758	26.808574
257	2	4	0.20827703	2.1483982	-10.447983	26.656187
258	2	1	-0.36970893	4.2227423	-9.7282174	26.500947
259	2	4	0.217372	4.5939264	-10.665109	26.105823
260	2	1	0.30595776	5.0616839	-8.707212	26.714116
261	2	11	-0.64744049	6.4154726	-8.8503916	26.421145
262	2	12	0.43773049	7.0679094	-8.0917698	26.575045
263	2	1	-0.36970893	4.5433099	-7.4344545	27.260364
264	2	4	0.21737203	5.2182661	-6.606292	27.440225
265	2	1	-0.1104276	3.2400907	-7.3025237	27.537021
266	2	4	0.20827708	2.8683641	-6.3680064	27.938476
267	2	9	0.15086442	0.058543968	-9.8050491	26.589481
268	2	1	-0.17902158	-2.5776464	-9.5068306	27.206845
269	2	4	0.20950393	-2.3751959	-10.345514	26.552419
270	2	1	-0.17902152	-3.8382767	-9.2520116	27.579692
271	2	4	0.2095039	-4.6342235	-9.891108	27.218513
272	2	9	0.15086442	-5.6985002	-6.9771054	29.559357
273	2	1	-0.14029486	-8.8121643	-9.5379955	28.551034
274	2	4	0.20827703	-8.4152885	-10.462698	28.151625
275	2	1	-0.24052812	-10.121789	-9.4346403	28.806945
276	2	4	0.21289335	-10.77885	-10.273723	28.613463
277	3	1	0.57148582	-0.19412271	7.4044744	66.002213
278	3	2	-0.60915381	-0.1946956	8.4947733	65.371357
279	3	3	-0.50752753	-1.4107508	6.8266365	66.489627
280	3	1	0.20620519	-2.7250787	7.2878957	66.13343
281	3	1	-0.37892386	-3.7328412	7.1627066	67.01268
282	3	4	0.21720174	-3.5555114	6.7392869	67.993679
283	3	1	-0.14158118	-5.0957865	7.6159466	66.664233
284	3	4	0.21541302	-5.888304	7.5047085	67.393853
285	3	1	-0.24482043	-5.3433714	8.1540521	65.458185
286	3	5	-0.050533239	-6.7354262	8.5813253	65.077545
287	3	1	-0.24482048	-7.4760764	7.4345032	64.445854
288	3	1	-0.14158116	-8.1912133	6.580666	65.197541
289	3	4	0.215413	-8.2671747	6.7187864	66.269487
290	3	1	-0.36673576	-8.8798076	5.4325619	64.572372
291	3	4	0.21720175	-9.4588146	4.7638055	65.197395
292	3	1	0.23654859	-8.7720154	5.2073656	63.252558
293	3	3	-0.49570557	-9.4589808	4.0886066	62.664621
294	3	1	0.83393288	-8.9863686	3.3637835	61.52289
295	3	2	-0.59559321	-7.8249698	3.5390834	61.070432
296	3	6	0.32478732	-10.317877	3.7251851	63.135444
297	3	1	-0.36673576	-7.9891432	6.1584576	62.420476
298	3	4	0.21720172	-7.9324005	6.0336997	61.347085
299	3	1	-0.14158118	-7.3730349	7.2035357	62.985733
300	3	4	0.215413	-6.8090716	7.8903548	62.366577
301	3	7	0.12625888	-6.6829689	9.4311561	64.364076
302	3	7	0.12625888	-7.2850461	8.9562643	65.969995
303	3	1	-0.14158115	-4.2443669	8.2531097	64.467746
304	3	4	0.215413	-4.4412412	8.6440359	63.477356
305	3	1	-0.37892395	-3.0100079	7.8426506	64.783614
306	3	4	0.21720175	-2.2336779	7.8896749	64.03258
307	3	6	0.32162106	-1.3215882	6.0701905	67.205941
308	4	8	-0.43301803	-9.6052045	2.6446067	61.0775
309	4	1	0.28013426	-9.0837343	1.5826177	60.34092
310	4	1	-0.18943375	-7.7591154	1.4443421	60.175555
311	4	4	0.21384709	-7.0739828	2.1612781	60.610518
312	4	1	-0.14230077	-7.2209397	0.31192663	59.391153
313	4	4	0.20827705	-6.1519826	0.25938155	59.2521
314	4	1	0.20383151	-8.0581278	-0.59878565	58.848245
315	4	3	-0.56476218	-7.60019	-1.7117934	58.06135
316	4	1	0.42211449	-6.3896975	-2.1825563	58.010476
317	4	1	-0.27558437	-6.0683475	-3.3301687	57.138921
318	4	1	-0.17902154	-4.8168591	-3.8208805	57.109874
319	4	4	0.20950393	-4.0353826	-3.3825823	57.71925
320	4	1	-0.17902152	-4.4811064	-4.9687089	56.241995
321	4	4	0.20950393	-3.4630747	-5.3366401	56.245024
322	4	1	-0.27558434	-5.425469	-5.5382321	55.469321
323	4	1	0.42211446	-5.1273501	-6.687504	54.589669
324	4	3	-0.56476206	-3.9254489	-7.1802019	54.514587
325	4	1	0.20383154	-3.5020939	-8.2971752	53.713609
326	4	1	-0.14029488	-4.3648557	-9.1894778	53.180033
327	4	4	0.20827703	-5.4307708	-9.1161522	53.337222
328	4	1	-0.24052815	-3.8613425	-10.326449	52.379922
329	4	4	0.21289335	-4.563767	-11.028702	51.951548
330	4	1	0.17588772	-2.5462302	-10.488129	52.190312
331	4	8	-0.017558696	-2.0825216	-11.562672	51.435294
332	4	1	-0.24052814	-1.5945697	-9.5248743	52.78725
333	4	4	0.21289335	-0.52999466	-9.654808	52.64205
334	4	1	-0.14029488	-2.0483572	-8.4924112	53.509089
335	4	4	0.20827708	-1.3459162	-7.7923676	53.943798
336	4	9	0.15086442	-5.9311711	-7.0889778	53.988935
337	4	1	-0.17902158	-6.8055057	-4.998831	55.500533
338	4	4	0.20950393	-7.5778235	-5.4454318	54.886342
339	4	1	-0.17902152	-7.1102835	-3.9594016	56.286937
340	4	4	0.2095039	-8.1253607	-3.5813081	56.293603
341	4	9	0.15086442	-5.6027756	-1.7627137	58.62382
342	4	1	-0.14230075	-9.5178227	-0.4284468	59.027043
343	4	4	0.20827703	-10.199767	-1.1437787	58.584579
344	4	1	-0.18943371	-10.003406	0.59900506	59.734428
345	4	4	0.2138471	-11.072477	0.71111408	59.861107
346	1	1	0.57148588	0.74858405	6.9176907	66.213113
347	1	2	-0.60915387	0.7494373	5.7140715	66.581342
348	1	3	-0.50752747	1.9664049	7.6693339	66.116942
349	1	1	0.2062052	3.2848058	7.10536	66.23599
350	1	1	-0.37892392	3.5779914	5.8825147	65.7546
351	1	4	0.21720174	2.8298006	5.2854396	65.252205
352	1	1	-0.14158118	4.9511688	5.3473185	65.861758
353	1	4	0.21541302	5.1625407	4.3624271	65.464073
354	1	1	-0.24482043	5.9222789	6.0779535	66.435747
355	1	5	-0.050533239	7.3322133	5.5601154	66.511448
356	1	1	-0.25925374	8.0930133	5.9365978	65.269123
357	1	1	-0.18664642	8.7441368	7.1100233	65.190379
358	1	4	0.20154327	8.7543334	7.793491	66.030814
359	1	1	-0.25861099	9.4524437	7.4898571	63.951254
360	1	4	0.20921019	9.974819	8.4380384	63.925462
361	1	1	0.44150829	9.4412854	6.6678723	62.88014
362	1	3	-0.3452239	10.112551	6.990238	61.651376
363	1	10	0.61513412	10.773636	8.061105	61.454409
364	1	2	-0.30186114	11.416507	9.1016883	61.262555
365	1	1	-0.25861102	8.7098941	5.3844018	62.965223
366	1	4	0.2092102	8.6875071	4.7204512	62.110315
367	1	1	-0.18664646	8.0713171	5.0388442	64.090133
368	1	4	0.2015433	7.536416	4.0986911	64.133916
369	1	7	0.12625888	7.3319178	4.4538846	66.632309
370	1	7	0.12625888	7.8385762	5.971232	67.412825
371	1	1	-0.14158115	5.6094317	7.4392007	66.931846
372	1	4	0.215413	6.3875936	8.0490867	67.372795
373	1	1	-0.37892395	4.365825	7.9240846	66.834743
374	1	4	0.21720175	4.1489862	8.9193134	67.200052
375	1	6	0.321621	1.8799581	8.7083266	66.056684
376	2	8	-0.017558677	-1.0914577	-11.705081	51.279775
377	2	1	0.17588773	-0.12997826	-10.892856	51.877518
378	2	1	-0.2405282	-0.48725682	-9.8825068	52.685647
379	2	4	0.21289335	-1.532407	-9.6823199	52.883727
380	2	1	-0.14029488	0.54473699	-9.029182	53.311756
381	2	4	0.20827705	0.21212557	-8.2055293	53.926326
382	2	1	0.20383151	1.8551294	-9.2679643	53.085785
383	2	3	-0.56476218	2.9064533	-8.4645882	53.650367
384	2	1	0.42211449	2.8038225	-7.6407478	54.651378
385	2	1	-0.27558437	3.9771071	-6.8719067	55.111232
386	2	1	-0.17902154	3.8640391	-6.037975	56.158892
387	2	4	0.20950393	2.9184644	-5.921329	56.673805
388	2	1	-0.17902152	5.029858	-5.2620173	56.628827
389	2	4	0.20950393	4.9009231	-4.6002855	57.477198
390	2	1	-0.27558434	6.2220364	-5.3800353	56.013801
391	2	1	0.42211446	7.409375	-4.6208516	56.455566
392	2	3	-0.56476206	7.3384163	-3.7866973	57.452514
393	2	1	0.20383154	8.4135136	-2.9974518	57.990316
394	2	1	-0.11042762	9.7153201	-3.2589057	57.742248
395	2	4	0.20827703	10.02232	-4.0924607	57.127605
396	2	1	-0.36970893	10.7725	-2.4172115	58.342445
397	2	4	0.217372	11.811288	-2.633444	58.128364
398	2	1	0.30595776	10.448427	-1.3989145	59.148525
399	2	11	-0.64744049	11.451876	-0.61255912	59.708714
400	2	12	0.43773049	11.229793	0.16204928	60.321517
401	2	1	-0.36970893	9.0257853	-1.1176951	59.438379
402	2	4	0.21737203	8.7573784	-0.29832109	60.094392
403	2	1	-0.1104276	8.0659146	-1.8757998	58.89409
404	2	4	0.20827708	7.0264921	-1.6647234	59.112531
405	2	9	0.15086442	8.331601	-4.7568572	55.908856
406	2	1	-0.17902158	6.3480536	-6.2995809	54.857611
407	2	4	0.20950393	7.2989465	-6.4068137	54.350705
408	2	1	-0.17902152	5.2915887	-7.0032169	54.431096
409	2	4	0.2095039	5.4080835	-7.6681318	53.584489
410	2	9	0.15086442	1.8684424	-7.5247358	55.182621
411	2	1	-0.14029486	2.2371571	-10.376365	52.182281
412	2	4	0.20827703	3.2835935	-10.56845	51.981815
413	2	1	-0.24052812	1.3012934	-11.146094	51.613981
414	2	4	0.21289335	1.5927884	-11.955997	50.956476
415	3	1	0.57148582	1.729665	0.96427417	80.204504
416	3	2	-0.60915381	2.368132	-0.035635712	79.7811
417	3	3	-0.50752753	0.30738666	1.0539746	80.060521
418	3	1	0.20620519	-0.53374575	-0.034474481	79.642348
419	3	1	-0.37892386	-1.6628252	0.22337588	78.961884
420	3	4	0.21720174	-1.9293314	1.2417924	78.707149
421	3	1	-0.14158118	-2.551261	-0.87755247	78.533981
422	3	4	0.21541302	-3.4538316	-0.64008396	77.984637
423	3	1	-0.24482043	-2.2411683	-2.1515889	78.827379
424	3	5	-0.050533239	-3.1589197	-3.2772191	78.432467
425	3	1	-0.24482048	-4.1678801	-3.5300823	79.519139
426	3	1	-0.14158116	-5.3442159	-2.8807617	79.529579
427	3	4	0.215413	-5.5965198	-2.1821863	78.740751
428	3	1	-0.36673576	-6.3104286	-3.1044155	80.62482
429	3	4	0.21720175	-7.2564804	-2.5773717	80.606145
430	3	1	0.23654859	-6.0123901	-3.9312844	81.640547
431	3	3	-0.49570557	-6.9726065	-4.1406345	82.690962
432	3	1	0.83393288	-6.6272906	-4.4260478	84.051688
433	3	2	-0.59559321	-5.4424675	-4.3196106	84.462981
434	3	6	0.32478732	-7.9860507	-4.0042989	82.476965
435	3	1	-0.36673576	-4.7151004	-4.6569172	81.622583
436	3	4	0.21720172	-4.4729828	-5.3718087	82.397994
437	3	1	-0.14158118	-3.843918	-4.4610514	80.625603
438	3	4	0.215413	-2.904034	-4.9993296	80.623717
439	3	7	0.12625888	-2.5641372	-4.1980184	78.252569
440	3	7	0.12625888	-3.6705917	-3.0432979	77.471945
441	3	1	-0.14158115	-1.0194362	-2.4381911	79.617203
442	3	4	0.215413	-0.78225426	-3.4567655	79.897747
443	3	1	-0.37892395	-0.21487901	-1.4409184	80.004536
444	3	4	0.21720175	0.64973236	-1.670607	80.611695
445	3	6	0.32162106	-0.12389601	1.9961406	80.200466
446	4	8	-0.43301803	-7.3815433	-4.6917256	84.729231
447	4	1	0.28013426	-7.2405733	-4.4889378	86.100838
448	4	1	-0.18943375	-6.1234796	-3.9417567	86.604599
449	4	4	0.21384709	-5.3107036	-3.6525676	85.950106
450	4	1	-0.14230077	-5.9887982	-3.7329019	88.062518
451	4	4	0.20827705	-5.0593509	-3.3241469	88.428322
452	4	1	0.20383151	-6.994956	-4.0779799	88.895342
453	4	3	-0.56476218	-6.9200523	-3.9169585	90.322283
454	4	1	0.42211449	-6.0780137	-3.1750761	90.978087
455	4	1	-0.27558437	-6.1167128	-3.1227051	92.453095
456	4	1	-0.17902154	-5.2534406	-2.3361763	93.119427
457	4	4	0.20950393	-4.5240305	-1.7377705	92.586491
458	4	1	-0.17902152	-5.280685	-2.2743936	94.595535
459	4	4	0.20950393	-4.5705424	-1.6298382	95.097548
460	4	1	-0.27558434	-6.1716942	-3.005277	95.292037
461	4	1	0.42211446	-6.2292723	-2.9687306	96.768125
462	4	3	-0.56476206	-5.3989101	-2.2381961	97.453525
463	4	1	0.20383154	-5.3523136	-2.101521	98.88446
464	4	1	-0.14029488	-6.374359	-2.4602139	99.691942
465	4	4	0.20827703	-7.2960198	-2.8641224	99.299948
466	4	1	-0.24052815	-6.2679417	-2.27667	101.15529
467	4	4	0.21289335	-7.0905161	-2.5759403	101.7908
468	4	1	0.17588772	-5.1639681	-1.7405684	101.68957
469	4	8	-0.017558696	-5.0741373	-1.5717757	103.06912
470	4	1	-0.24052814	-4.0480379	-1.3284793	100.80938
471	4	4	0.21289335	-3.1558781	-0.88878043	101.23599
472	4	1	-0.14029488	-4.1406076	-1.4971119	99.484255
473	4	4	0.20827708	-3.3204894	-1.1920344	98.846454
474	4	9	0.15086442	-6.9633136	-3.588724	97.263081
475	4	1	-0.17902158	-7.1242223	-3.8723749	94.559056
476	4	4	0.20950393	-7.8483721	-4.4661755	95.103267
477	4	1	-0.17902152	-7.1002954	-3.9282943	93.221882
478	4	4	0.2095039	-7.8055587	-4.5691946	92.706876
479	4	9	0.15086442	-5.353168	-2.5622777	90.457721
480	4	1	-0.14230075	-8.2170556	-4.6922307	88.328895
481	4	4	0.20827703	-9.0246167	-4.9863439	88.987579
482	4	1	-0.18943371	-8.3359173	-4.8837104	87.009407
483	4	4	0.2138471	-9.2356919	-5.3306398	86.60668
484	1	1	0.57148588	2.2729256	1.7873129	80.649036
485	1	2	-0.60915387	1.644596	2.6462642	81.32112
486	1	3	-0.50752747	3.6837415	1.9059184	80.419176
487	1	1	0.2062052	4.5371431	2.8690123	81.063052
488	1	1	-0.37892392	4.3494988	3.2362783	82.344828
489	1	4	0.21720174	3.5521989	2.8098951	82.937449
490	1	1	-0.14158118	5.265845	4.2014997	82.986849
491	1	4	0.21541302	5.0957008	4.4785747	84.019866
492	1	1	-0.24482043	6.2988347	4.7181291	82.299556
493	1	5	-0.050533239	7.2619965	5.6681989	82.956434
494	1	1	-0.25925374	8.3762111	4.9049337	83.619667
495	1	1	-0.18664642	9.4852401	4.5737887	82.935936
496	1	4	0.20154327	9.6072146	4.8743429	81.902325
497	1	1	-0.25861099	10.555004	3.7873688	83.58289
498	1	4	0.20921019	11.439112	3.5463182	83.00597
499	1	1	0.44150829	10.423293	3.3813561	84.863857
500	1	3	-0.3452239	11.432791	2.6136607	85.539086
501	1	10	0.61513412	12.531582	2.2485418	85.008113
502	1	2	-0.30186114	13.599821	1.8936258	84.492549
503	1	1	-0.25861102	9.1939571	3.734025	85.608053
504	1	4	0.2092102	9.0736586	3.4076476	86.633336
505	1	1	-0.18664646	8.2262925	4.4503384	85.022277
506	1	4	0.2015433	7.3308363	4.6952175	85.579158
507	1	7	0.12625888	6.7341634	6.2947468	83.70955
508	1	7	0.12625888	7.6742488	6.3723987	82.200093
509	1	1	-0.14158115	6.5286123	4.2857657	80.90054
510	1	4	0.215413	7.3718012	4.6737255	80.343357
511	1	1	-0.37892395	5.6988288	3.4114878	80.318993
512	1	4	0.21720175	5.8764588	3.1027408	79.297194
513	1	6	0.321621	4.0924019	1.3176915	79.659179
514	2	8	-0.017558677	-4.2485366	-1.167225	103.49502
515	2	1	0.17588773	-3.192527	-0.67681931	102.72965
516	2	1	-0.2405282	-3.2320077	-0.72634086	101.38894
517	2	4	0.21289335	-4.0880083	-1.1517858	100.88109
518	2	1	-0.14029488	-2.1032923	-0.20256291	100.59091
519	2	4	0.20827705	-2.1608164	-0.29479169	99.516242
520	2	1	0.20383151	-1.029743	0.34163673	101.20455
521	2	3	-0.56476218	0.10737666	0.85251794	100.48663
522	2	1	0.42211449	0.15820302	1.1534524	99.222458
523	2	1	-0.27558437	1.409141	1.6584771	98.623056
524	2	1	-0.17902154	1.4446863	1.9845847	97.319902
525	2	4	0.20950393	0.56307928	1.8815293	96.699417
526	2	1	-0.17902152	2.6900626	2.4902814	96.70721
527	2	4	0.20950393	2.6805247	2.7439045	95.653725
528	2	1	-0.27558434	3.8067612	2.6316363	97.446451
529	2	1	0.42211446	5.0696511	3.1342452	96.868713
530	2	3	-0.56476206	5.1533625	3.4415769	95.606455
531	2	1	0.20383154	6.3108077	3.950153	94.921149
532	2	1	-0.11042762	7.3718618	4.4849404	95.563615
533	2	4	0.20827703	7.4028692	4.5702473	96.640002
534	2	1	-0.36970893	8.5230466	5.0064929	94.796105
535	2	4	0.217372	9.370042	5.4248752	95.324519
536	2	1	0.30595776	8.5162359	4.966717	93.458163
537	2	11	-0.64744049	9.6054506	5.4607591	92.744993
538	2	12	0.43773049	9.6214068	5.4413569	91.732949
539	2	1	-0.36970893	7.3502982	4.3984779	92.747738
540	2	4	0.21737203	7.336515	4.3685141	91.664834
541	2	1	-0.1104276	6.3076824	3.9224612	93.439609
542	2	4	0.20827708	5.4567984	3.5095447	92.912195
543	2	9	0.15086442	5.9297966	3.2123149	97.518285
544	2	1	-0.17902158	3.7689483	2.2719343	98.884298
545	2	4	0.20950393	4.6575253	2.3788248	99.493934