Title

3024 atoms
3304 bonds
5552 angles
8648 dihedrals
4608 impropers

10 atom types
13 bond types
8 angle types
17 dihedral types
3 improper types
-19.43274648 68.91825687 xlo xhi
-18.48509005 73.10023714 ylo yhi
-24.10597459 74.21097571 zlo zhi
0.0 0.0 0.0 xy xz yz

Masses

1	12.01078
2	15.99943
3	1.007947
4	12.01078
5	18.998403
6	14.00672
7	15.99943
8	1.007947
9	15.99943
10	1.007947


Pair Coeffs

1	0.086879315	3.4806469
2	0.2102061	3.0398122
3	0.015611343	2.5725815
4	0.10884061	3.3795318
5	0.061	3.1181455
6	0.16769152	3.206876
7	0.16846514	3.0251065
8	0.014090815	1.1034277
9	0.20947353	2.99716
10	1.2326e-05	0.53453923

Bond Coeffs

1 harmonic	582.698766451	1.225198386222
2 harmonic	279.1350963404	1.454628925034
3 harmonic	492.76746816345	1.381897776683
4 harmonic	360.7852444772	1.387193227181
5 harmonic	397.2545789619	1.085358495916
6 harmonic	289.73813263395	1.498646816465
7 harmonic	264.62148576755	1.52190126495
8 harmonic	340.45121009905	1.358690858053
9 harmonic	390.03554688505	1.390160554689
10 harmonic	505.144496193	1.019481865027
11 harmonic	425.69104206635	1.362945806494
12 harmonic	385.7604595587	1.369745182308
13 harmonic	543.5267831885	0.9716763312559


Angle Coeffs

1 harmonic	57.8982893754	126.8062420451
2 harmonic	55.42182150775	117.3465570514
3 harmonic	63.44422595415	115.5071327674
4 harmonic	34.066775159195	129.1835929926
5 harmonic	53.20531626545	116.5475862634
6 harmonic	65.09061609600001	110.3538806181
7 harmonic	79.1895422237	112.4630193006
8 harmonic	201.41175231035	127.4691416191


Dihedral Coeffs

1 fourier 1	3.661930099076	2	180
2 fourier 1	1.193093382682	2	180
3 fourier 1	0.9974165607242	2	180
4 fourier 1	3.101948770557	2	180
5 fourier 1	-0.4252153282372	1	0
6 fourier 1	2.348375642009	2	180
7 fourier 1	1.256156174911	1	0
8 fourier 1	1.809047390003	2	180
9 fourier 1	-0.04816277792592	1	0
10 fourier 1	0.02664938770063	3	0
11 fourier 1	0.1155372516788	3	0
12 fourier 1	1.163235555439	2	180
13 fourier 1	1.532232714475	2	180
14 fourier 1	1.659715194912	2	180
15 fourier 1	2.687457892086	2	180
16 fourier 1	2.772607909663	2	180
17 fourier 1	0.09692684957115	1	0


Improper Coeffs

1 0.3666666666666667	-1	2
2 0.3333333333333333	-1	2
3 3.5	-1	2


Atoms

1	1	1	0.76873004	-4.7951549	1.1141606	10.19955
2	1	2	-0.65585858	-5.048321	-0.074651238	10.069672
3	1	1	-0.37103647	-5.1873889	1.7427614	11.497117
4	1	1	-0.084072608	-5.7478061	3.0266781	11.519816
5	1	3	0.22371834	-5.8102257	3.6181126	10.614353
6	1	1	-0.24719671	-6.3347011	3.5291803	12.689132
7	1	3	0.21177779	-6.7933727	4.5013595	12.618442
8	1	1	-0.037998593	-6.3437473	2.7820191	13.893919
9	1	4	-0.26243046	-7.0289013	3.2780361	15.202461
10	1	1	-0.037998612	-7.857767	2.113399	15.826986
11	1	1	-0.24719674	-8.8351401	1.4570771	15.051689
12	1	3	0.2117778	-9.0175589	1.748673	14.026979
13	1	1	-0.084072585	-9.5878542	0.40243492	15.572792
14	1	3	0.22371836	-10.33241	-0.050515121	14.93393
15	1	1	-0.37103644	-9.3946454	-0.049632861	16.893298
16	1	1	0.76873004	-10.197637	-1.1820456	17.46438
17	1	2	-0.65585858	-10.46932	-1.1433254	18.656275
18	1	1	-0.084072555	-8.4518793	0.61689281	17.686434
19	1	3	0.22371836	-8.2867325	0.30807259	18.711146
20	1	1	-0.24719674	-7.6867231	1.6653285	17.162747
21	1	3	0.21177776	-6.9702346	2.1102563	17.832021
22	1	4	0.753497	-5.8933148	3.7876776	16.149173
23	1	5	-0.19978312	-5.1542417	4.7765105	15.520748
24	1	5	-0.19978312	-6.4095582	4.3287126	17.316126
25	1	5	-0.19978312	-5.0241224	2.7623627	16.478223
26	1	4	0.753497	-8.030033	4.4674192	14.958608
27	1	5	-0.19978312	-8.9775576	4.1421553	14.003202
28	1	5	-0.19978312	-8.7046282	4.7688546	16.130536
29	1	5	-0.19978312	-7.3821607	5.61977	14.547865
30	1	1	-0.24719677	-5.7208692	1.5139037	13.867763
31	1	3	0.21177779	-5.6988164	0.89507757	14.756102
32	1	1	-0.084072585	-5.1801625	0.99362141	12.685162
33	1	3	0.22371834	-4.7721858	-0.0094134906	12.694216
34	1	6	-0.53157109	-10.69048	-2.2228115	16.718727
35	1	1	0.20018817	-10.260783	-2.5726259	15.400971
36	1	1	-0.37341449	-11.159024	-3.1617696	14.504765
37	1	3	0.21922938	-12.182285	-3.348299	14.806759
38	1	1	-0.1264382	-10.756257	-3.4837068	13.202456
39	1	3	0.20490318	-11.491722	-3.9248161	12.545645
40	1	1	-0.12691441	-9.4269285	-3.260982	12.776395
41	1	1	-0.13318123	-8.9770183	-3.5985576	11.38569
42	1	1	-0.12730587	-7.6192435	-3.8516803	11.110298
43	1	3	0.20818214	-6.8653559	-3.8255699	11.882028
44	1	1	-0.29446793	-7.1983697	-4.1796971	9.8261877
45	1	3	0.22558553	-6.149654	-4.3783507	9.6470229
46	1	1	0.33077326	-8.1079762	-4.2488137	8.7709223
47	1	7	-0.2796934	-7.6193583	-4.5655677	7.5491169
48	1	1	0.30215269	-7.4667553	-3.7070131	6.5071949
49	1	1	-0.31814742	-7.7307495	-2.3287375	6.6105841
50	1	3	0.23190665	-8.0714452	-1.8943741	7.5415218
51	1	1	-0.1032956	-7.5579702	-1.4952383	5.5030714
52	1	3	0.21481801	-7.7707182	-0.43884084	5.6046575
53	1	1	-0.10789854	-7.1218737	-2.0205847	4.270101
54	1	1	0.2443622	-6.8523585	-3.4006803	4.1759965
55	1	1	-0.3209621	-7.0235509	-4.2280487	5.2895834
56	1	3	0.2280381	-6.8135039	-5.2866714	5.2051073
57	1	7	-0.3029593	-6.4252464	-3.9515565	3.0206954
58	1	1	0.2443622	-6.25618	-3.2638352	1.8685058
59	1	1	-0.32096213	-5.8245258	-3.949023	0.73415075
60	1	3	0.22803805	-5.6273366	-5.0133213	0.78717542
61	1	1	0.30215266	-5.654633	-3.2782751	-0.48475637
62	1	7	-0.27969337	-5.2452846	-3.9563032	-1.5734256
63	1	1	0.33077329	-3.9645264	-4.3237267	-1.8359812
64	1	1	-0.29446793	-2.8717425	-3.6985554	-1.2026248
65	1	3	0.22558552	-3.0297398	-2.9094503	-0.47859176
66	1	1	-0.12730591	-1.5599265	-4.0742512	-1.5093956
67	1	3	0.20818212	-0.74927966	-3.5672308	-1.0026293
68	1	1	-0.13318122	-1.3062951	-5.106735	-2.4291197
69	1	1	-0.12691443	0.089382298	-5.5258284	-2.7673377
70	1	1	-0.12643819	1.1560556	-4.6043161	-2.7417003
71	1	3	0.20490321	0.99193153	-3.568392	-2.4744351
72	1	1	-0.37341446	2.4484064	-4.9980022	-3.1121534
73	1	3	0.2192294	3.2465047	-4.2655945	-3.113589
74	1	1	0.2001881	2.7164908	-6.3293057	-3.4627327
75	1	6	-0.53157103	4.0311166	-6.7111351	-3.8697405
76	1	8	0.32015356	4.5519191	-6.0110763	-4.4213185
77	1	1	-0.37341452	1.6570259	-7.2513109	-3.4772437
78	1	3	0.21922943	1.8207886	-8.2788627	-3.7741024
79	1	1	-0.12643819	0.36282629	-6.8535674	-3.1471157
80	1	3	0.20490321	-0.41533723	-7.6030644	-3.1766085
81	1	1	-0.054853058	-2.4037532	-5.7367976	-3.0492387
82	1	3	0.20718354	-2.2290553	-6.5146663	-3.7771226
83	1	1	-0.32072333	-3.7249703	-5.3430265	-2.7762008
84	1	4	0.76732284	-4.8888416	-6.004441	-3.4844638
85	1	5	-0.2060573	-5.723593	-6.5956431	-2.5542616
86	1	5	-0.2060573	-4.4688617	-6.9776564	-4.3755971
87	1	5	-0.2060573	-5.598177	-5.0485337	-4.1890648
88	1	1	-0.31814742	-5.9191704	-1.905679	-0.55922227
89	1	3	0.23190666	-5.7956779	-1.3829337	-1.4997354
90	1	1	-0.10329566	-6.3355106	-1.2091991	0.57685631
91	1	3	0.21481801	-6.5254229	-0.14621977	0.49856692
92	1	1	-0.10789859	-6.5093498	-1.876105	1.8085566
93	1	4	0.09946866	-6.9429943	-1.1154128	3.0553977
94	1	1	0.047139318	-5.952561	-0.017049095	3.3557642
95	1	1	-0.13109616	-4.5967585	-0.1458847	3.6702746
96	1	3	0.21808256	-4.1335827	-1.1225815	3.7270606
97	1	1	-0.25904572	-3.8488024	1.0170973	3.9094997
98	1	3	0.22345835	-2.7969098	0.93802043	4.1527581
99	1	1	-0.22974778	-4.4579466	2.2842642	3.8314465
100	1	3	0.21826391	-3.8716455	3.1751334	4.0163089
101	1	1	-0.16745995	-5.8219985	2.399368	3.5148416
102	1	3	0.20442319	-6.2937111	3.3709234	3.4532923
103	1	1	-0.012711983	-6.5465576	1.2288324	3.2802561
104	1	1	-0.012712059	-7.9442706	1.0501866	2.9390113
105	1	1	-0.16745988	-8.9461317	2.0033728	2.7574279
106	1	3	0.2044232	-8.738893	3.0597693	2.8673347
107	1	1	-0.22974785	-10.236363	1.5574061	2.4310542
108	1	3	0.21826394	-11.032488	2.2767694	2.2870141
109	1	1	-0.25904563	-10.500325	0.18063092	2.2912154
110	1	3	0.22345833	-11.499585	-0.15163445	2.0409326
111	1	1	-0.13109623	-9.4758564	-0.76329364	2.4758188
112	1	3	0.21808257	-9.6760155	-1.8220863	2.370926
113	1	1	0.047139333	-8.1963383	-0.30559751	2.801384
114	1	1	-0.32072339	-9.4829006	-3.9929528	9.009013
115	1	4	0.76732284	-10.551873	-4.0526902	7.9355378
116	1	5	-0.2060573	-10.078663	-4.5017489	6.7189322
117	1	5	-0.2060573	-11.556699	-4.9150255	8.3372949
118	1	5	-0.2060573	-11.090624	-2.7908035	7.7609552
119	1	1	-0.054853025	-9.8956341	-3.6736777	10.316942
120	1	3	0.20718354	-10.943708	-3.4706175	10.484741
121	1	1	-0.12643823	-8.5202399	-2.7156053	13.706174
122	1	3	0.20490323	-7.4903989	-2.5148281	13.451958
123	1	1	-0.37341443	-8.9296751	-2.3773452	14.989799
124	1	3	0.21922943	-8.1921452	-1.9656509	15.663741
125	1	8	0.32015356	-11.389187	-2.8421919	17.157974
126	1	1	0.76873004	4.6192414	-7.9355618	-3.6859402
127	1	2	-0.65585864	5.6342351	-8.1844403	-4.3225471
128	1	1	-0.37103647	4.1766941	-8.9555224	-2.6725571
129	1	1	-0.084072593	3.4679097	-8.5894399	-1.5148014
130	1	3	0.22371834	3.1936113	-7.5635106	-1.32292
131	1	1	-0.24719671	3.1402207	-9.5277647	-0.5384206
132	1	3	0.21177779	2.6125379	-9.154445	0.32221419
133	1	1	-0.037998593	3.525962	-10.88008	-0.66129523
134	1	4	-0.26243046	3.236413	-11.937806	0.44111195
135	1	1	-0.037998612	2.5469498	-13.165334	-0.20592357
136	1	1	-0.24719674	1.3685685	-12.979076	-0.95351403
137	1	3	0.2117778	0.94343831	-11.993451	-1.0830861
138	1	1	-0.084072585	0.72172796	-14.053457	-1.5588244
139	1	3	0.22371836	-0.18737872	-13.848486	-2.1050743
140	1	1	-0.37103644	1.2275475	-15.363722	-1.4506124
141	1	1	0.76873004	0.53936008	-16.523616	-2.1030278
142	1	2	-0.65585858	0.58245255	-17.607238	-1.5365152
143	1	1	-0.084072555	2.3794635	-15.567622	-0.68126507
144	1	3	0.22371836	2.7895362	-16.563288	-0.5621554
145	1	1	-0.24719674	3.0384009	-14.488477	-0.081783151
146	1	3	0.21177776	3.9283651	-14.722207	0.47775137
147	1	4	0.753497	4.6143747	-12.289659	1.1077888
148	1	5	-0.19978312	5.2151892	-11.140394	1.5948833
149	1	5	-0.19978312	4.4572284	-13.164441	2.1699106
150	1	5	-0.19978312	5.4891532	-12.858813	0.19839373
151	1	4	0.753497	2.2833514	-11.409154	1.5763063
152	1	5	-0.19978312	1.0826235	-10.948618	1.0631389
153	1	5	-0.19978312	1.9887876	-12.429238	2.4650505
154	1	5	-0.19978312	2.8657434	-10.381028	2.2989747
155	1	1	-0.24719677	4.2350605	-11.24729	-1.8272135
156	1	3	0.21177779	4.5488878	-12.270415	-1.9802285
157	1	1	-0.0840726	4.5583005	-10.302763	-2.8105034
158	1	3	0.22371834	5.1165775	-10.627107	-3.6801612
159	1	6	-0.53157109	-0.17987373	-16.422813	-3.2651132
160	1	1	0.20018817	-0.11587363	-15.331071	-4.1853759
161	1	1	-0.37341449	-1.2436727	-14.977761	-4.9335301
162	1	3	0.21922938	-2.1687337	-15.528098	-4.8112161
163	1	1	-0.1264382	-1.1985305	-13.894335	-5.8185762
164	1	3	0.20490318	-2.100063	-13.656958	-6.3636238
165	1	1	-0.12691441	-0.0056024368	-13.159764	-6.008484
166	1	1	-0.13318123	0.060787017	-12.000983	-6.9575233
167	1	1	-0.12730587	1.2889733	-11.603634	-7.5199132
168	1	3	0.20818214	2.2118729	-12.118146	-7.3008139
169	1	1	-0.29446793	1.3544963	-10.543898	-8.4163366
170	1	3	0.22558553	2.3111933	-10.267405	-8.8416268
171	1	1	0.33077326	0.20861241	-9.8320931	-8.7666012
172	1	7	-0.2796934	0.35647048	-8.8099814	-9.637504
173	1	1	0.30215269	0.28857426	-7.4899242	-9.3308362
174	1	1	-0.31814742	0.1425183	-7.01889	-8.012797
175	1	3	0.23190665	0.07969043	-7.7040178	-7.1780985
176	1	1	-0.1032956	0.076711016	-5.6456606	-7.7626478
177	1	3	0.21481801	-0.039819007	-5.30481	-6.7405722
178	1	1	-0.10789854	0.14744667	-4.7188307	-8.8232833
179	1	1	0.2443622	0.29889635	-5.2035175	-10.137513
180	1	1	-0.3209621	0.37229739	-6.5740849	-10.379162
181	1	3	0.2280381	0.48811591	-6.9335548	-11.394771
182	1	7	-0.3029593	0.37661037	-4.3603786	-11.188761
183	1	1	0.2443622	0.28066461	-3.0192915	-11.090916
184	1	1	-0.32096213	0.3524474	-2.2598537	-12.259948
185	1	3	0.22803805	0.4859246	-2.7535485	-13.21565
186	1	1	0.30215266	0.24499236	-0.86885253	-12.208159
187	1	7	-0.27969337	0.29883748	-0.15505683	-13.35393
188	1	1	0.33077329	1.432947	0.2723561	-13.97016
189	1	1	-0.29446793	2.6873318	0.22062458	-13.339189
190	1	3	0.22558552	2.7854075	-0.17264434	-12.335521
191	1	1	-0.12730591	3.8346331	0.6753308	-13.991516
192	1	3	0.20818212	4.7645844	0.58989814	-13.451677
193	1	1	-0.13318122	3.7758091	1.1923017	-15.303816
194	1	1	-0.12691443	5.0270542	1.6422238	-16.026213
195	1	1	-0.12643819	6.2571786	1.8400862	-15.347615
196	1	3	0.20490321	6.3435454	1.7310269	-14.279552
197	1	1	-0.37341446	7.4308241	2.1623012	-16.04481
198	1	3	0.2192294	8.360731	2.2680386	-15.501506
199	1	1	0.2001881	7.4182625	2.2713519	-17.437868
200	1	6	-0.53157103	8.6441667	2.4580234	-18.156948
201	1	8	0.32015356	9.3614111	3.0599773	-17.724234
202	1	1	-0.37341452	6.1878816	2.1616462	-18.10808
203	1	3	0.21922943	6.1293127	2.2799871	-19.182237
204	1	1	-0.12643819	5.0212697	1.8468337	-17.422664
205	1	3	0.20490321	4.1423839	1.7224417	-18.030766
206	1	1	-0.054853058	2.5062973	1.2289545	-15.929609
207	1	3	0.20718354	2.3960112	1.6122901	-16.927963
208	1	1	-0.32072333	1.3425639	0.78085614	-15.277848
209	1	4	0.76732284	-0.0026177678	0.82452757	-15.972943
210	1	5	-0.2060573	-0.52089289	-0.4559552	-16.052327
211	1	5	-0.2060573	0.08797113	1.3361205	-17.256454
212	1	5	-0.2060573	-0.8717276	1.6199822	-15.247014
213	1	1	-0.31814742	0.064996341	-0.23031597	-10.97755
214	1	3	0.23190666	-0.024991799	0.84707604	-10.935152
215	1	1	-0.10329566	0.0044532906	-0.98314229	-9.7996884
216	1	3	0.21481801	-0.12827007	-0.46994215	-8.8554744
217	1	1	-0.10789859	0.1112681	-2.3884795	-9.8394749
218	1	4	0.09946866	0.063230385	-3.2199082	-8.5588748
219	1	1	0.047139318	1.1643652	-2.7892804	-7.6192276
220	1	1	-0.13109616	2.5436774	-2.837804	-7.8326407
221	1	3	0.21808256	2.9454985	-3.2189727	-8.7634341
222	1	1	-0.25904572	3.3982194	-2.3791781	-6.8186357
223	1	3	0.22345835	4.469734	-2.4075343	-6.9665593
224	1	1	-0.22974778	2.8679009	-1.8835351	-5.610422
225	1	3	0.21826391	3.5351056	-1.531827	-4.8353361
226	1	1	-0.16745995	1.4783496	-1.8415235	-5.4089987
227	1	3	0.20442319	1.0672616	-1.4609904	-4.4833745
228	1	1	-0.012711983	0.64755987	-2.3013257	-6.431973
229	1	1	-0.012712059	-0.79733787	-2.3727216	-6.4955902
230	1	1	-0.16745988	-1.7493875	-2.009284	-5.5430905
231	1	3	0.2044232	-1.4550997	-1.6020583	-4.5847023
232	1	1	-0.22974785	-3.1055843	-2.1882803	-5.8569623
233	1	3	0.21826394	-3.8647418	-1.9166264	-5.1345177
234	1	1	-0.25904563	-3.4837192	-2.7220209	-7.105648
235	1	3	0.22345833	-4.5328883	-2.8566552	-7.3364113
236	1	1	-0.13109623	-2.508546	-3.0810683	-8.0510041
237	1	3	0.21808257	-2.7943671	-3.4940555	-9.0097402
238	1	1	0.047139333	-1.1615153	-2.8983372	-7.7259954
239	1	1	-0.32072339	-1.0462928	-10.197134	-8.2138708
240	1	4	0.76732284	-2.3522073	-9.4985037	-8.5383349
241	1	5	-0.2060573	-2.2254997	-8.5306068	-9.5147763
242	1	5	-0.2060573	-3.2701486	-10.429735	-8.9886302
243	1	5	-0.2060573	-2.8463528	-8.9028191	-7.3908271
244	1	1	-0.054853025	-1.0984698	-11.281343	-7.3174713
245	1	3	0.20718354	-2.0576429	-11.545657	-6.89543
246	1	1	-0.12643823	1.1350287	-13.555088	-5.2841657
247	1	3	0.20490323	2.0783449	-13.038672	-5.3748713
248	1	1	-0.37341443	1.0797592	-14.617443	-4.3909061
249	1	3	0.21922943	1.9863998	-14.882296	-3.8644057
250	1	8	0.32015356	-0.77873806	-17.220216	-3.5329646
251	1	6	-0.53157109	-4.3464976	1.7977576	9.1047532
252	1	1	0.20018817	-3.5772203	3.0049463	9.0819074
253	1	1	-0.37341449	-3.6169303	3.8310777	7.9495951
254	1	3	0.21922938	-4.3233858	3.6261342	7.1546714
255	1	1	-0.1264382	-2.7245015	4.9024572	7.8064348
256	1	3	0.20490318	-2.77335	5.4929974	6.9011277
257	1	1	-0.12691441	-1.7193741	5.1331505	8.7663496
258	1	1	-0.13318123	-0.66082129	6.1719358	8.529219
259	1	1	-0.12730587	0.65613892	5.9493397	8.9740299
260	1	3	0.20818214	0.92146952	5.0432259	9.500055
261	1	1	-0.29446793	1.6700192	6.8703001	8.7041786
262	1	3	0.22558553	2.6787675	6.6640949	9.0427363
263	1	1	0.33077326	1.4008123	8.0529855	8.0106479
264	1	7	-0.2796934	2.4284352	8.917265	7.8037999
265	1	1	0.30215269	2.630316	10.072082	8.4960286
266	1	1	-0.31814742	1.8169184	10.440475	9.5818139
267	1	3	0.23190665	0.99968282	9.8103021	9.905038
268	1	1	-0.1032956	2.0494525	11.631958	10.266233
269	1	3	0.21481801	1.406225	11.888272	11.097678
270	1	1	-0.10789854	3.0972823	12.489084	9.8820424
271	1	1	0.2443622	3.9186449	12.123154	8.7969581
272	1	1	-0.3209621	3.6821376	10.918877	8.1156245
273	1	3	0.2280381	4.3170592	10.644592	7.2819345
274	1	7	-0.3029593	4.9408717	12.918518	8.4014529
275	1	1	0.2443622	5.2349292	14.114659	8.9653312
276	1	1	-0.32096213	6.3076062	14.860412	8.4605256
277	1	3	0.22803805	6.8896067	14.472919	7.6330976
278	1	1	0.30215266	6.628596	16.108155	9.0092414
279	1	7	-0.27969337	7.65882	16.824546	8.5036758
280	1	1	0.33077329	8.974422	16.589829	8.7597296
281	1	1	-0.29446793	9.3858835	15.841616	9.8764648
282	1	3	0.22558552	8.6588649	15.427254	10.563155
283	1	1	-0.12730591	10.741809	15.63085	10.1337
284	1	3	0.20818212	11.007246	15.048092	11.004367
285	1	1	-0.13318122	11.728863	16.134123	9.2641462
286	1	1	-0.12691443	13.186139	15.89935	9.5283548
287	1	1	-0.075649026	13.663926	15.703417	10.842291
288	1	3	0.20490321	12.997756	15.732221	11.692541
289	1	1	-0.44963485	15.026155	15.50456	11.087342
290	1	3	0.23139505	15.369669	15.375441	12.105838
291	1	1	0.32024562	15.939445	15.474739	10.027694
292	1	6	-0.84406513	17.319236	15.267967	10.276475
293	1	8	0.3675788	17.995252	15.236901	9.4991974
294	1	8	0.3675788	17.668149	15.150673	11.23915
295	1	1	-0.44963491	15.478608	15.652573	8.7188721
296	1	3	0.23139509	16.172251	15.623451	7.8871201
297	1	1	-0.075649011	14.120408	15.871773	8.4706745
298	1	3	0.20490321	13.811916	15.993931	7.4424824
299	1	1	-0.054853058	11.30998	16.875845	8.1404272
300	1	3	0.20718354	12.047811	17.292777	7.4702143
301	1	1	-0.32072333	9.946728	17.124206	7.8899644
302	1	4	0.76732284	9.5163991	17.957288	6.702212
303	1	5	-0.2060573	8.7007312	17.203602	5.8782365
304	1	5	-0.2060573	10.597398	18.402361	5.961193
305	1	5	-0.2060573	8.8126283	19.061721	7.1484882
306	1	1	-0.31814742	5.872833	16.615393	10.069231
307	1	3	0.23190666	6.1132318	17.582301	10.493423
308	1	1	-0.10329566	4.8133278	15.871411	10.592185
309	1	3	0.21481801	4.2482706	16.277214	11.42239
310	1	1	-0.10789859	4.4814719	14.612793	10.04823
311	1	4	0.09946866	3.3383558	13.79271	10.633125
312	1	1	0.047139318	3.6023784	13.51238	12.091879
313	1	1	-0.13109616	4.6642092	12.794538	12.64948
314	1	3	0.21808256	5.4263608	12.357095	12.017694
315	1	1	-0.25904572	4.7209068	12.653247	14.043793
316	1	3	0.22345835	5.5357071	12.101949	14.494871
317	1	1	-0.22974778	3.7242955	13.225721	14.859344
318	1	3	0.21826391	3.7778731	13.110992	15.9333
319	1	1	-0.16745995	2.6622487	13.943953	14.284284
320	1	3	0.20442319	1.895305	14.38533	14.906766
321	1	1	-0.012711983	2.6268752	14.073208	12.895395
322	1	1	-0.012712059	1.665858	14.749388	12.046303
323	1	1	-0.16745988	0.5112255	15.449693	12.392167
324	1	3	0.2044232	0.21023113	15.556229	13.426303
325	1	1	-0.22974785	-0.25766432	16.013029	11.361475
326	1	3	0.21826394	-1.1601238	16.56014	11.602968
327	1	1	-0.25904563	0.13730592	15.868436	10.01671
328	1	3	0.22345833	-0.46397206	16.305224	9.2309685
329	1	1	-0.13109623	1.3058414	15.158777	9.6898254
330	1	3	0.21808257	1.6113276	15.043615	8.6577896
331	1	1	0.047139333	2.0619603	14.602732	10.725879
332	1	1	-0.32072339	0.079570037	8.3110519	7.5583189
333	1	4	0.76732284	-0.31834209	9.5645051	6.8003143
334	1	5	-0.2060573	0.74976435	10.388996	6.5101119
335	1	5	-0.2060573	-0.91396574	9.2093806	5.6048161
336	1	5	-0.2060573	-1.2285781	10.278411	7.5597004
337	1	1	-0.054853025	-0.92997302	7.3563062	7.8148759
338	1	3	0.20718354	-1.9341019	7.5532337	7.4635672
339	1	1	-0.12643823	-1.6936488	4.3072257	9.9113263
340	1	3	0.20490323	-0.93731991	4.443577	10.673057
341	1	1	-0.37341443	-2.6271087	3.2719999	10.081233
342	1	3	0.21922943	-2.5406311	2.6293253	10.946191
343	1	8	0.32015356	-4.3871806	1.3082522	8.1959197
344	1	1	0.76873004	8.9256266	1.8933662	-19.380634
345	1	2	-0.65585864	9.9164838	2.2742328	-19.987366
346	1	1	-0.37103647	8.0901657	0.80823602	-19.997597
347	1	1	-0.084072593	7.9469463	0.71163128	-21.388817
348	1	3	0.22371834	8.4669126	1.4016071	-22.040961
349	1	1	-0.24719671	7.0776477	-0.23598928	-21.953319
350	1	3	0.21177779	6.9780402	-0.22645833	-23.023325
351	1	1	-0.037998593	6.3435097	-1.1368665	-21.140847
352	1	4	-0.26243046	5.300112	-2.1366789	-21.71782
353	1	1	-0.037998612	5.1198863	-3.3272621	-20.727357
354	1	1	-0.24615613	3.8712471	-3.7110692	-20.179877
355	1	3	0.2117778	2.9504209	-3.217044	-20.440413
356	1	1	-0.055427666	3.7801124	-4.7579521	-19.257304
357	1	3	0.23438294	2.8070797	-5.018646	-18.858838
358	1	1	-0.26377738	4.9286011	-5.4458896	-18.836487
359	1	1	0.8392443	4.8405112	-6.5285061	-17.825795
360	1	2	-0.48526913	3.7562098	-6.8619516	-17.36961
361	1	9	-0.66466999	5.9633197	-7.1350136	-17.383655
362	1	10	0.41863054	5.9321402	-7.8244271	-16.705184
363	1	1	-0.05542774	6.1687927	-5.0827559	-19.376534
364	1	3	0.23438291	7.0758392	-5.5876923	-19.069446
365	1	1	-0.24615617	6.2610156	-4.0505504	-20.311248
366	1	3	0.21177776	7.2436608	-3.7910172	-20.680761
367	1	4	0.753497	5.7339076	-2.7476851	-23.094381
368	1	5	-0.19978312	5.7500462	-1.8044214	-24.105975
369	1	5	-0.19978312	6.9908019	-3.3167088	-23.019302
370	1	5	-0.19978312	4.8343852	-3.7314612	-23.473734
371	1	4	0.753497	3.9814037	-1.3161791	-21.922902
372	1	5	-0.19978312	4.199641	-0.22855205	-22.752374
373	1	5	-0.19978312	2.9832158	-2.0855533	-22.496667
374	1	5	-0.19978312	3.5283796	-0.82489183	-20.707437
375	1	1	-0.24719677	6.5503257	-1.0588657	-19.747794
376	1	3	0.21177779	6.0250924	-1.6983883	-19.053332
377	1	1	-0.0840726	7.4155503	-0.12840985	-19.196511
378	1	3	0.22371834	7.5244243	-0.13399542	-18.121549
379	2	1	0.76873004	8.0274525	6.9947272	47.832369
380	2	2	-0.65585858	7.1067763	7.7930612	47.736176
381	2	1	-0.37103647	9.3900743	7.5018782	47.487804
382	2	1	-0.084072608	10.2789	6.7011645	46.758509
383	2	3	0.22371834	10.03076	5.6731062	46.523826
384	2	1	-0.24719671	11.456956	7.2433096	46.226987
385	2	3	0.21177779	12.065578	6.582796	45.632168
386	2	1	-0.037998593	11.812325	8.5986368	46.442959
387	2	4	-0.26243046	13.08418	9.2572438	45.829465
388	2	1	-0.037998612	12.711626	10.651878	45.238171
389	2	1	-0.24719674	11.673933	10.754277	44.289589
390	2	3	0.2117778	11.129654	9.8780171	43.966687
391	2	1	-0.084072585	11.304376	11.987189	43.747599
392	2	3	0.22371836	10.511438	11.998834	43.013578
393	2	1	-0.37103644	11.952076	13.177684	44.133132
394	2	1	0.76873004	11.563751	14.508517	43.55748
395	2	2	-0.65585858	12.445771	15.341751	43.403571
396	2	1	-0.084072555	13.008864	13.086118	45.047978
397	2	3	0.22371836	13.540831	13.977545	45.356273
398	2	1	-0.24719674	13.372574	11.853731	45.602835
399	2	3	0.21177776	14.181279	11.873338	46.313367
400	2	4	0.753497	14.148485	9.3492142	46.971547
401	2	5	-0.19978312	14.39467	8.0920042	47.49857
402	2	5	-0.19978312	15.353163	9.8503698	46.504002
403	2	5	-0.19978312	13.700115	10.154183	48.004034
404	2	4	0.753497	13.704165	8.4164543	44.652582
405	2	5	-0.19978312	12.765451	8.1556504	43.66912
406	2	5	-0.19978312	14.743178	9.1180544	44.063034
407	2	5	-0.19978312	14.218397	7.2074218	45.088663
408	2	1	-0.24719677	10.933441	9.3751458	47.231232
409	2	3	0.21177779	11.1493	10.417816	47.428266
410	2	1	-0.084072585	9.73237	8.8444014	47.71841
411	2	3	0.22371834	9.0566317	9.4933245	48.261441
412	2	6	-0.53157109	10.294049	14.821704	43.142925
413	2	1	0.20018817	9.1101679	14.096453	43.483405
414	2	1	-0.37341449	8.0333439	14.05507	42.591299
415	2	3	0.21922938	8.0978663	14.567928	41.639527
416	2	1	-0.1264382	6.879214	13.325163	42.902896
417	2	3	0.20490318	6.081692	13.314589	42.174382
418	2	1	-0.12691441	6.7574679	12.649763	44.138721
419	2	1	-0.13318123	5.5297743	11.862532	44.490109
420	2	1	-0.12730587	5.1892536	11.623097	45.835539
421	2	3	0.20818214	5.7838998	12.003709	46.651704
422	2	1	-0.29446793	4.0445331	10.906863	46.167642
423	2	3	0.22558553	3.8036074	10.747085	47.210615
424	2	1	0.33077326	3.2113289	10.38951	45.175743
425	2	7	-0.2796934	2.1211043	9.6963343	45.579236
426	2	1	0.30215269	1.9639284	8.3488003	45.505394
427	2	1	-0.31814742	2.9835162	7.4858157	45.062986
428	2	3	0.23190665	3.9481964	7.871559	44.759697
429	2	1	-0.1032956	2.7621077	6.1078154	45.005965
430	2	3	0.21481801	3.5594862	5.4634076	44.658859
431	2	1	-0.10789854	1.5185458	5.5640389	45.385763
432	2	1	0.2443622	0.50455197	6.4337215	45.834791
433	2	1	-0.3209621	0.73462381	7.8112502	45.893126
434	2	3	0.2280381	-0.051983129	8.4693898	46.239593
435	2	7	-0.3029593	-0.70068182	5.9626761	46.217071
436	2	1	0.2443622	-1.0551091	4.6582749	46.172305
437	2	1	-0.32096213	-2.3377867	4.2961289	46.579929
438	2	3	0.22803805	-3.0291875	5.0544498	46.928269
439	2	1	0.30215266	-2.7521583	2.9580447	46.531681
440	2	7	-0.27969337	-3.9974026	2.6258302	46.920897
441	2	1	0.33077329	-4.4094235	2.4894183	48.207718
442	2	1	-0.29446793	-3.4930457	2.2925062	49.26016
443	2	3	0.22558552	-2.4286628	2.2539219	49.066577
444	2	1	-0.12730591	-3.9419894	2.1264691	50.574313
445	2	3	0.20818212	-3.2056391	1.9749225	51.352678
446	2	1	-0.13318122	-5.3135281	2.187849	50.876568
447	2	1	-0.12691443	-5.813108	2.0168685	52.276258
448	2	1	-0.12643819	-5.1323302	1.1987023	53.200801
449	2	3	0.20490321	-4.2280709	0.6737806	52.921018
450	2	1	-0.37341446	-5.6402237	1.0052298	54.491927
451	2	3	0.2192294	-5.1161434	0.3485053	55.175621
452	2	1	0.2001881	-6.8060558	1.665246	54.907088
453	2	6	-0.53157103	-7.3316546	1.4345861	56.214846
454	2	8	0.32015356	-7.2345705	0.47204078	56.574898
455	2	1	-0.37341452	-7.4789503	2.4901395	53.990827
456	2	3	0.21922943	-8.3988416	2.9889551	54.266125
457	2	1	-0.12643819	-6.9974646	2.6534886	52.693281
458	2	3	0.20490321	-7.5552175	3.2978196	52.028523
459	2	1	-0.054853058	-6.2238237	2.398075	49.821529
460	2	3	0.20718354	-7.2828257	2.4232094	50.029608
461	2	1	-0.32072333	-5.7870303	2.5298259	48.492216
462	2	4	0.76732284	-6.7843414	2.713372	47.367323
463	2	5	-0.2060573	-6.5401847	3.9107751	46.720624
464	2	5	-0.2060573	-8.0902101	2.7239162	47.828024
465	2	5	-0.2060573	-6.6515461	1.6738476	46.464476
466	2	1	-0.31814742	-1.8651271	1.9776431	46.071754
467	2	3	0.23190666	-2.1814595	0.94277729	46.026315
468	2	1	-0.10329566	-0.57303295	2.3303449	45.67781
469	2	3	0.21481801	0.099365012	1.5544574	45.334298
470	2	1	-0.10789859	-0.14685454	3.6751151	45.722912
471	2	4	0.09946866	1.2692371	4.0608637	45.314016
472	2	1	0.047139318	2.2688888	3.3178485	46.166194
473	2	1	-0.13109616	2.4407159	3.3936333	47.551274
474	2	3	0.21808256	1.8190318	4.0470869	48.149772
475	2	1	-0.25904572	3.4347955	2.6042021	48.149437
476	2	3	0.22345835	3.5819735	2.6476609	49.22105
477	2	1	-0.22974778	4.2380001	1.7548166	47.364409
478	2	3	0.21826391	5.0009792	1.1489253	47.835928
479	2	1	-0.16745995	4.0549777	1.6887528	45.972913
480	2	3	0.20442319	4.6694588	1.0371464	45.366247
481	2	1	-0.012711983	3.0596146	2.4827379	45.399319
482	2	1	-0.012712059	2.6551968	2.6141164	44.013263
483	2	1	-0.16745988	3.1571706	1.9836984	42.874906
484	2	3	0.2044232	3.9708813	1.2735402	42.942369
485	2	1	-0.22974785	2.5816394	2.2967487	41.63359
486	2	3	0.21826394	2.95443	1.823001	40.734348
487	2	1	-0.25904563	1.52376	3.2235616	41.552042
488	2	3	0.22345833	1.0888815	3.458393	40.58908
489	2	1	-0.13109623	1.0309179	3.8456224	42.711678
490	2	3	0.21808257	0.21935343	4.5597041	42.652025
491	2	1	0.047139333	1.6136971	3.5255142	43.94072
492	2	1	-0.32072339	3.5263425	10.604427	43.809308
493	2	4	0.76732284	2.6825286	10.095078	42.657283
494	2	5	-0.2060573	1.5043677	9.5020098	43.064612
495	2	5	-0.2060573	2.3532022	11.152781	41.828118
496	2	5	-0.2060573	3.4140086	9.1715021	41.93269
497	2	1	-0.054853025	4.6824545	11.34176	43.488827
498	2	3	0.20718354	4.9182182	11.490534	42.444733
499	2	1	-0.12643823	7.8285699	12.743725	45.048622
500	2	3	0.20490323	7.8085955	12.252283	46.009661
501	2	1	-0.37341443	8.9802901	13.450409	44.726307
502	2	3	0.21922943	9.7699496	13.493223	45.46268
503	2	8	0.32015356	10.167044	15.680466	42.585109
504	2	1	0.76873004	-8.0294003	2.3294673	56.983762
505	2	2	-0.65585864	-8.636638	1.8984788	57.954809
506	2	1	-0.37103647	-8.011389	3.8214107	56.791686
507	2	1	-0.084072593	-6.938845	4.4732434	56.158003
508	2	3	0.22371834	-6.098707	3.9226423	55.763547
509	2	1	-0.24719671	-6.8884264	5.8624042	56.063965
510	2	3	0.21177779	-6.0213143	6.2752491	55.577977
511	2	1	-0.037998593	-7.9011973	6.672933	56.620731
512	2	4	-0.26243046	-7.8411131	8.2265019	56.593555
513	2	1	-0.037998612	-9.1732315	8.7731225	56.021272
514	2	1	-0.24719674	-9.6142668	8.3304344	54.759654
515	2	3	0.2117778	-9.0381238	7.61443	54.190111
516	2	1	-0.084072585	-10.809459	8.7895877	54.212122
517	2	3	0.22371836	-11.085357	8.4254031	53.233282
518	2	1	-0.37103644	-11.623137	9.7077566	54.904401
519	2	1	0.76873004	-12.912433	10.202465	54.323383
520	2	2	-0.65585858	-13.249606	11.351621	54.573949
521	2	1	-0.084072555	-11.179194	10.18234	56.144589
522	2	3	0.22371836	-11.770203	10.900884	56.699656
523	2	1	-0.24719674	-9.9846322	9.7137634	56.70279
524	2	3	0.21177776	-9.7194467	10.110701	57.66812
525	2	4	0.753497	-7.5679873	8.6975165	58.066845
526	2	5	-0.19978312	-6.4077328	8.1122403	58.546751
527	2	5	-0.19978312	-7.4075149	10.071148	58.1405
528	2	5	-0.19978312	-8.5970044	8.3313486	58.917267
529	2	4	0.753497	-6.6786779	8.7890468	55.694248
530	2	5	-0.19978312	-6.7614197	8.315628	54.395707
531	2	5	-0.19978312	-6.7472548	10.170731	55.635511
532	2	5	-0.19978312	-5.4321223	8.4538951	56.196489
533	2	1	-0.24719677	-8.9804155	6.0162698	57.254065
534	2	3	0.21177779	-9.7895393	6.5847168	57.690955
535	2	1	-0.0840726	-9.0316588	4.6187406	57.342163
536	2	3	0.22371834	-9.8707416	4.1597544	57.850541
537	2	6	-0.53157109	-13.700932	9.4590936	53.484592
538	2	1	0.20018817	-13.611352	8.0442116	53.303028
539	2	1	-0.37341449	-13.936252	7.4739321	52.06783
540	2	3	0.21922938	-14.250365	8.1055918	51.245693
541	2	1	-0.1264382	-13.827408	6.0922286	51.872371
542	2	3	0.20490318	-14.079883	5.7045694	50.896583
543	2	1	-0.12691441	-13.428438	5.2380125	52.925877
544	2	1	-0.13318123	-13.31334	3.7554631	52.734418
545	2	1	-0.12730587	-13.415635	2.8801241	53.832565
546	2	3	0.20818214	-13.589638	3.2381619	54.835561
547	2	1	-0.29446793	-13.330868	1.5039977	53.659358
548	2	3	0.22558553	-13.424098	0.85433317	54.520655
549	2	1	0.33077326	-13.121025	0.9541796	52.396003
550	2	7	-0.2796934	-13.041749	-0.39179855	52.311717
551	2	1	0.30215269	-11.910518	-1.1078889	52.090949