Title

261 atoms
282 bonds
459 angles
715 dihedrals
414 impropers

10 atom types
14 bond types
9 angle types
19 dihedral types
3 improper types
-11.92599964 88.07400036 xlo xhi
-7.484000206 92.51599979 ylo yhi
-11.53899956 88.46100044 zlo zhi
0.0 0.0 0.0 xy xz yz

Masses

1	14.00672
2	12.01078
3	1.007947
4	15.99943
5	12.01078
6	1.007947
7	18.998403
8	15.99943
9	15.99943
10	1.007947


Pair Coeffs

1	0.16769152	3.206876
2	0.086879315	3.4806469
3	0.015611343	2.5725815
4	0.16846514	3.0251065
5	0.10884061	3.3795318
6	0.014090815	1.1034277
7	0.061	3.1181455
8	0.2102061	3.0398122
9	0.20947353	2.99716
10	1.2326e-05	0.53453923

Bond Coeffs

1 harmonic	390.03554688505	1.390160554689
2 harmonic	505.144496193	1.019481865027
3 harmonic	422.7150220147	1.421786517481
4 harmonic	360.7852444772	1.387193227181
5 harmonic	397.2545789619	1.085358495916
6 harmonic	279.1350963404	1.454628925034
7 harmonic	425.69104206635	1.362945806494
8 harmonic	289.73813263395	1.498646816465
9 harmonic	352.0565580496	1.450098586273
10 harmonic	492.76746816345	1.381897776683
11 harmonic	340.45121009905	1.358690858053
12 harmonic	582.698766451	1.225198386222
13 harmonic	385.7604595587	1.369745182308
14 harmonic	543.5267831885	0.9716763312559


Angle Coeffs

1 harmonic	57.8982893754	126.8062420451
2 harmonic	55.42182150775	117.3465570514
3 harmonic	63.44422595415	115.5071327674
4 harmonic	34.066775159195	129.1835929926
5 harmonic	65.09061609600001	110.3538806181
6 harmonic	53.20531626545	116.5475862634
7 harmonic	14.32262199324	138.3184368373
8 harmonic	39.628116874445	129.8027304608
9 harmonic	201.41175231035	127.4691416191


Dihedral Coeffs

1 fourier 1	3.661930099076	2	180
2 fourier 1	1.193093382682	2	180
3 fourier 1	0.02021088501612	1	0
4 fourier 1	1.163235555439	2	180
5 fourier 1	1.532232714475	2	180
6 fourier 1	0.02664938770063	3	0
7 fourier 1	-0.6891728821899999	2	180
8 fourier 1	0.2727846432367	1	0
9 fourier 1	1.57666786751	2	180
10 fourier 1	3.101948770557	2	180
11 fourier 1	-0.4252153282372	1	0
12 fourier 1	1.809047390003	2	180
13 fourier 1	-0.04816277792592	1	0
14 fourier 1	0.9974165607242	2	180
15 fourier 1	2.348375642009	2	180
16 fourier 1	1.256156174911	1	0
17 fourier 1	2.687457892086	2	180
18 fourier 1	2.772607909663	2	180
19 fourier 1	0.09692684957115	1	0


Improper Coeffs

1 0.3666666666666667	-1	2
2 0.3333333333333333	-1	2
3 3.5	-1	2


Atoms

1	1	1	-0.410366	-11.091	5.553	1.375
2	1	2	0.130072	-9.9469995	4.915	0.80299997
3	1	2	-0.40349299	-9.927	3.585	0.62400001
4	1	3	0.22489101	-10.778	2.98	0.91399997
5	1	2	-0.109558	-8.7320004	2.9260001	0.052999999
6	1	3	0.20661899	-8.7370005	1.847	-0.037
7	1	2	-0.125176	-7.6529999	3.6470001	-0.301
8	1	2	-0.131494	-6.4310002	2.9779999	-0.81800002
9	1	2	-0.124216	-5.2090001	3.3800001	-0.41299999
10	1	3	0.209886	-5.0939999	4.1919999	0.28999999
11	1	2	-0.292252	-4.0009999	2.6889999	-0.89200002
12	1	3	0.227773	-3.03	3.007	-0.53500003
13	1	2	0.33315101	-4.1040001	1.653	-1.735
14	1	4	-0.267995	-2.9519999	0.97500002	-2.131
15	1	2	0.26931801	-2.3	0.021	-1.335
16	1	2	-0.28876999	-2.8659999	-0.50999999	-0.236
17	1	3	0.234512	-3.8570001	-0.221	0.082999997
18	1	2	-0.152596	-2.148	-1.524	0.55900002
19	1	3	0.221577	-2.6600001	-1.949	1.409
20	1	2	-0.142313	-0.88999999	-1.8940001	0.236
21	1	5	0.191319	-0.131	-2.9590001	1.048
22	1	2	-0.142313	1.387	-2.723	1.0650001
23	1	2	-0.152596	2.2590001	-3.743	1.211
24	1	3	0.221577	1.918	-4.7639999	1.295
25	1	2	-0.28876999	3.714	-3.494	1.274
26	1	3	0.234512	4.3990002	-4.3330002	1.3099999
27	1	2	0.26931801	4.1859999	-2.2420001	1.2539999
28	1	4	-0.267995	5.5700002	-2.033	1.276
29	1	2	0.33315101	6.1630001	-0.83499998	0.86199999
30	1	2	-0.292252	6.8610001	-0.119	1.753
31	1	3	0.227773	6.9809999	-0.48100001	2.7650001
32	1	2	-0.124216	7.4050002	1.2029999	1.3940001
33	1	3	0.209886	7.9590001	1.757	2.1440001
34	1	2	-0.131494	7.2179999	1.7029999	0.162
35	1	2	-0.125176	7.7150002	3.0539999	-0.191
36	1	2	-0.123698	8.2810001	3.286	-1.393
37	1	3	0.20661899	8.415	2.484	-2.1099999
38	1	2	-0.371299	8.7510004	4.6399999	-1.751
39	1	3	0.22123	9.1990004	4.8010001	-2.723
40	1	2	0.20222799	8.6000004	5.658	-0.889
41	1	1	-0.52920401	9.0229998	6.9759998	-1.247
42	1	6	0.32121399	9.4639997	7.1719999	-2.1719999
43	1	2	-0.371299	7.9790001	5.4130001	0.43200001
44	1	3	0.22123	7.8590002	6.2280002	1.132
45	1	2	-0.123698	7.5689998	4.1830001	0.76700002
46	1	3	0.20661899	7.1059999	4.0229998	1.732
47	1	2	-0.052161001	6.4879999	0.889	-0.847
48	1	3	0.208827	6.3499999	1.289	-1.8430001
49	1	2	-0.318728	6.0219998	-0.33899999	-0.54500002
50	1	5	0.76833701	5.3410001	-1.169	-1.614
51	1	7	-0.203326	5.54	-2.5179999	-1.383
52	1	7	-0.203326	5.8530002	-0.87800002	-2.868
53	1	7	-0.203326	3.9849999	-0.89999998	-1.615
54	1	2	-0.28876999	3.233	-1.1059999	1.2460001
55	1	3	0.234512	3.596	-0.088	1.323
56	1	2	-0.152596	1.92	-1.332	1.166
57	1	3	0.221578	1.247	-0.486	1.1849999
58	1	2	0.089598	-0.58399999	-3.0179999	2.5009999
59	1	2	-0.047504999	-0.53500003	-2.0669999	3.444
60	1	3	0.21975	-0.13500001	-1.084	3.2320001
61	1	2	-0.26324299	-1.061	-2.3870001	4.7979999
62	1	3	0.22554301	-1.039	-1.633	5.573
63	1	2	-0.24831501	-1.58	-3.6040001	5.0580001
64	1	3	0.217134	-1.9630001	-3.8329999	6.0419998
65	1	2	0.011936	-1.628	-4.6399999	3.9979999
66	1	3	0.222691	-2.046	-5.6209998	4.1900001
67	1	2	-0.235083	-1.1390001	-4.322	2.802
68	1	2	0.687226	-1.064	-5.0910001	1.594
69	1	8	-0.546027	-1.4630001	-6.2779999	1.461
70	1	1	-0.447606	-0.48699999	-4.3140001	0.54400003
71	1	2	0.20792	-0.207	-4.8569999	-0.76200002
72	1	2	-0.337394	-0.81099999	-4.3629999	-1.862
73	1	3	0.209244	-1.5369999	-3.5669999	-1.788
74	1	2	-0.16186801	-0.53399998	-4.948	-3.191
75	1	3	0.23514301	-0.99400002	-4.5180001	-4.0689998
76	1	2	-0.25929999	0.271	-6.0110002	-3.303
77	1	3	0.229847	0.46799999	-6.4419999	-4.276
78	1	2	-0.16186801	0.88800001	-6.6030002	-2.0940001
79	1	3	0.23514301	1.513	-7.4840002	-2.178
80	1	2	-0.337394	0.65600002	-6.0609999	-0.88999999
81	1	3	0.209244	1.0779999	-6.52	-0.0089999996
82	1	2	-0.152597	-0.28799999	-1.325	-1.01
83	1	3	0.221578	0.68199998	-1.664	-1.354
84	1	2	-0.28876999	-0.95300001	-0.42300001	-1.739
85	1	3	0.234512	-0.50800002	-0.026000001	-2.6429999
86	1	2	-0.318728	-5.4390001	1.2180001	-2.2320001
87	1	5	0.76833701	-5.5479999	0.022	-3.151
88	1	7	-0.203326	-4.552	0.061000001	-4.1110001
89	1	7	-0.203326	-5.4029999	-1.135	-2.408
90	1	7	-0.203326	-6.7680001	-0.016000001	-3.802
91	1	2	-0.052161001	-6.54	1.837	-1.767
92	1	3	0.208827	-7.5229998	1.512	-2.0780001
93	1	2	-0.109558	-7.6890001	5.125	-0.118
94	1	3	0.20661899	-6.8390002	5.7340002	-0.40900001
95	1	2	-0.40349299	-8.7690001	5.7199998	0.40400001
96	1	3	0.22489101	-8.7770004	6.7969999	0.542
97	1	6	0.374924	-11.926	5.0009999	1.66
98	1	2	0.75790101	8.8620005	7.7859998	-0.57999998
99	1	8	-0.66265798	9.8699999	8.3780003	-0.109
100	1	2	-0.317359	7.4889998	8.1850004	-0.192
101	1	2	-0.119786	7.3070002	8.9230003	0.921
102	1	3	0.215536	8.1499996	9.2720003	1.5039999
103	1	2	-0.112868	5.9530001	9.2220001	1.418
104	1	3	0.220926	5.8530002	9.835	2.306
105	1	2	-0.381475	4.8720002	8.7379999	0.787
106	1	2	0.83101398	3.5009999	9.0270004	1.274
107	1	8	-0.59255999	2.572	9.151	0.42899999
108	1	2	-0.37990299	3.1849999	9.1619997	2.7179999
109	1	2	-0.108865	2.1819999	9.9560003	3.1229999
110	1	3	0.220926	1.608	10.534	2.408
111	1	2	-0.104387	1.878	10.107	4.5570002
112	1	3	0.22612301	1.117	10.823	4.8439999
113	1	2	-0.20122001	2.5829999	9.4370003	5.487
114	1	2	0.80324799	2.3499999	9.7510004	6.915
115	1	8	-0.48433	3.2909999	9.6709995	7.7490001
116	1	9	-0.66395497	1.097	10.186	7.3400002
117	1	10	0.42005	0.92900002	10.42	8.3120003
118	1	2	-0.129435	3.635	8.4650002	5.0409999
119	1	2	0.80398399	4.2930002	7.5349998	5.9889998
120	1	8	-0.48433	5.473	7.1409998	5.776
121	1	9	-0.66395497	3.5999999	7.0510001	7.0939999
122	1	10	0.42005	4.0370002	6.4029999	7.7389998
123	1	2	0.018175	3.925	8.3669996	3.7290001
124	1	3	0.245331	4.658	7.6459999	3.388
125	1	2	0.049017999	5.0570002	7.9640002	-0.46399999
126	1	3	0.233483	4.178	7.6269999	-1.003
127	1	2	-0.208505	6.2849998	7.717	-0.95700002
128	1	2	0.57792699	6.3779998	7.0370002	-2.2679999
129	1	8	-0.53042197	7.381	7.178	-3.0150001
130	1	1	-0.410366	-11.11	6.5840001	1.508
131	1	2	0.130072	-10.168	7.223	2.3740001
132	1	2	-0.40349299	-10.199	8.552	2.552
133	1	3	0.22489101	-10.936	9.1569996	2.0380001
134	1	2	-0.109558	-9.2069998	9.2119999	3.4300001
135	1	3	0.20661899	-9.2370005	10.29	3.516
136	1	2	-0.125176	-8.2679996	8.4899998	4.0689998
137	1	2	-0.131494	-7.2360001	9.1590004	4.9029999
138	1	2	-0.124216	-5.9499998	8.7580004	4.8509998
139	1	3	0.209886	-5.6459999	7.9450002	4.2069998
140	1	2	-0.292252	-4.921	9.448	5.645
141	1	3	0.227773	-3.8900001	9.1309996	5.5700002
142	1	2	0.33315101	-5.2529998	10.484	6.4260001
143	1	4	-0.267995	-4.2550001	11.163	7.1259999
144	1	2	0.26931801	-3.408	12.117	6.54
145	1	2	-0.28876999	-3.6489999	12.648	5.3270001
146	1	3	0.234512	-4.5139999	12.358	4.7470002
147	1	2	-0.152596	-2.7390001	13.661	4.7620001
148	1	3	0.221577	-2.997	14.086	3.803
149	1	2	-0.142313	-1.619	14.031	5.4200001
150	1	5	0.191319	-0.66600001	15.096	4.849
151	1	2	-0.142313	0.79799998	14.86	5.2509999
152	1	2	-0.152596	1.676	15.881	5.3520002
153	1	3	0.221577	1.372	16.900999	5.177
154	1	2	-0.28876999	3.092	15.631	5.6929998
155	1	3	0.234512	3.76	16.471001	5.848
156	1	2	0.26931801	3.54	14.38	5.8429999
157	1	4	-0.267995	4.8769999	14.171	6.2030001
158	1	2	0.33315101	5.3319998	12.972	6.7649999
159	1	2	-0.292252	6.2490001	12.257	6.1009998
160	1	3	0.227773	6.6430001	12.618	5.1609998
161	1	2	-0.124216	6.6719999	10.934	6.5960002
162	1	3	0.209886	7.4120002	10.381	6.0289998
163	1	2	-0.131494	6.1529999	10.435	7.7290001
164	1	2	-0.125176	6.533	9.0830002	8.2060003
165	1	2	-0.072741002	6.7449999	8.8509998	9.5170002
166	1	3	0.20661899	6.6760001	9.6529999	10.243
167	1	2	-0.447736	7.098	7.4970002	9.9910002
168	1	3	0.23355301	7.2610002	7.336	11.048
169	1	2	0.32336599	7.191	6.4790001	9.1210003
170	1	1	-0.84306097	7.4980001	5.1609998	9.5810003
171	1	6	0.36949399	7.527	4.3660002	8.908
172	1	6	0.36949399	7.6669998	4.9650002	10.592
173	1	2	-0.447736	6.9590001	6.724	7.6799998
174	1	3	0.23355301	7.0359998	5.9089999	6.974
175	1	2	-0.072741002	6.6570001	7.9549999	7.2449999
176	1	3	0.20661899	6.4790001	8.1140003	6.1890001
177	1	2	-0.052161001	5.1719999	11.249	8.4969997
178	1	3	0.208827	4.7649999	10.849	9.4169998
179	1	2	-0.318728	4.8080001	12.476	8.0780001
180	1	5	0.76833701	3.859	13.307	8.9180002
181	1	7	-0.203326	4.1139998	14.656	8.75
182	1	7	-0.203326	4.0040002	13.015	10.264
183	1	7	-0.203326	2.5539999	13.037	8.5439997
184	1	2	-0.28876999	2.622	13.244	5.5869999
185	1	3	0.234512	2.9920001	12.225	5.6129999
186	1	2	-0.152596	1.3380001	13.469	5.302
187	1	3	0.221578	0.69599998	12.624	5.0970001
188	1	2	0.089598	-0.70099998	15.155	3.3269999
189	1	2	-0.047504999	-0.39300001	14.204	2.434
190	1	3	0.21975	-0.067000002	13.221	2.7490001
191	1	2	-0.26324299	-0.52499998	14.525	0.98799998
192	1	3	0.22554301	-0.28999999	13.77	0.249
193	1	2	-0.24831501	-0.95200002	15.741	0.59399998
194	1	3	0.217134	-1.048	15.971	-0.45699999
195	1	2	0.011936	-1.291	16.778	1.6
196	1	3	0.222691	-1.6390001	17.757999	1.3
197	1	2	-0.235083	-1.15	16.459999	2.8840001
198	1	2	0.687226	-1.4119999	17.229	4.066
199	1	8	-0.546027	-1.832	18.415001	4.0840001
200	1	1	-0.447606	-1.147	16.451	5.2350001
201	1	2	0.20792	-1.239	16.995001	6.5679998
202	1	2	-0.337394	-2.1229999	16.500999	7.4580002
203	1	3	0.209244	-2.8010001	15.704	7.1859999
204	1	2	-0.16186801	-2.223	17.084999	8.8109999
205	1	3	0.23514301	-2.908	16.656	9.5290003
206	1	2	-0.25929999	-1.48	18.148001	9.1420002
207	1	3	0.229847	-1.5599999	18.58	10.131
208	1	2	-0.16186801	-0.55400002	18.74	8.1499996
209	1	3	0.23514301	0.024	19.622	8.4040003
210	1	2	-0.337394	-0.44400001	18.198	6.9289999
211	1	3	0.209244	0.204	18.657	6.198
212	1	2	-0.152597	-1.385	13.462	6.783
213	1	3	0.221578	-0.54799998	13.801	7.382
214	1	2	-0.28876999	-2.2249999	12.561	7.3010001
215	1	3	0.234512	-2.0469999	12.164	8.2919998
216	1	2	-0.318728	-6.6729999	10.919	6.5359998
217	1	5	0.76833701	-7.0310001	12.116	7.3889999
218	1	7	-0.203326	-6.3400002	12.076	8.5869999
219	1	7	-0.203326	-6.6869998	13.272	6.7150002
220	1	7	-0.203326	-8.3839998	12.153	7.678
221	1	2	-0.052161001	-7.6030002	10.301	5.7849998
222	1	3	0.208827	-8.6330004	10.625	5.8119998
223	1	2	-0.109558	-8.2519999	7.013	3.8829999
224	1	3	0.20661899	-7.5159998	6.4039998	4.3969998
225	1	2	-0.40349299	-9.1459999	6.4169998	3.0829999
226	1	3	0.22489101	-9.1160002	5.3410001	2.948
227	1	6	0.374924	-11.834	7.1360002	1.0039999
228	1	2	0.582789	5.5469999	6.448	-2.628
229	1	8	-0.53042197	4.6220002	6.1680002	-1.819
230	1	2	-0.32008699	5.4889998	6.006	-4.0409999
231	1	2	-0.047522999	4.3150001	5.592	-4.5570002
232	1	3	0.212042	3.425	5.533	-3.9430001
233	1	2	-0.096587002	4.1880002	5.2719998	-5.9889998
234	1	3	0.220926	3.2160001	4.9829998	-6.369
235	1	2	-0.37990299	5.2449999	5.3829999	-6.809
236	1	2	0.83101398	5.1269999	5.1069999	-8.2609997
237	1	8	-0.59255999	5.8369999	5.7729998	-9.0629997
238	1	2	-0.37990299	4.211	4.072	-8.8009996
239	1	2	-0.108865	3.6210001	4.2449999	-9.9940004
240	1	3	0.220926	3.7920001	5.145	-10.572
241	1	2	-0.104387	2.7349999	3.207	-10.549
242	1	3	0.22612301	2.3239999	3.3629999	-11.539
243	1	2	-0.20122001	2.503	2.0639999	-9.8769999
244	1	2	0.80324799	1.737	0.986	-10.544
245	1	8	-0.48433	0.81800002	1.27	-11.36
246	1	9	-0.66395497	2.056	-0.34900001	-10.314
247	1	10	0.42005	1.5470001	-1.0930001	-10.776
248	1	2	-0.129435	3.1129999	1.88	-8.5190001
249	1	2	0.80398399	2.7579999	0.73500001	-7.651
250	1	8	-0.48433	3.596	0.27700001	-6.8270001
251	1	9	-0.66395497	1.48	0.185	-7.7010002
252	1	10	0.42005	1.223	-0.58899999	-7.1009998
253	1	2	0.018175	3.948	2.8239999	-8.0419998
254	1	3	0.245331	4.4070001	2.6989999	-7.0679998
255	1	2	0.028957	6.5450001	5.8260002	-6.2529998
256	1	3	0.245331	7.401	5.8740001	-6.9159999
257	1	2	-0.081031002	6.6880002	6.0939999	-4.941
258	1	2	0.81643301	8.0410004	6.4130001	-4.428
259	1	8	-0.48433	8.3839998	6.0710001	-3.2650001
260	1	9	-0.66395497	8.9659996	7.0510001	-5.2509999
261	1	10	0.42005	9.901	7.2589998	-4.9200001

Bonds

1	1	1	2
2	2	1	97
3	3	1	130
4	4	2	3
5	4	2	95
6	5	3	4
7	4	3	5
8	5	5	6
9	4	5	7
10	6	7	8
11	4	7	93
12	4	8	9
13	4	8	91
14	5	9	10
15	4	9	11
16	5	11	12
17	4	11	13
18	7	13	14
19	4	13	86
20	7	14	15
21	4	15	16
22	4	15	84
23	5	16	17
24	4	16	18
25	5	18	19
26	4	18	20
27	8	20	21
28	4	20	82
29	8	21	22
30	8	21	58
31	9	21	70
32	4	22	23
33	4	22	56
34	5	23	24
35	4	23	25
36	5	25	26
37	4	25	27
38	7	27	28
39	4	27	54
40	7	28	29
41	4	29	30
42	4	29	49
43	5	30	31
44	4	30	32
45	5	32	33
46	4	32	34
47	6	34	35
48	4	34	47
49	4	35	36
50	4	35	45
51	5	36	37
52	4	36	38
53	5	38	39
54	4	38	40
55	1	40	41
56	4	40	43
57	2	41	42
58	10	41	98
59	5	43	44
60	4	43	45
61	5	45	46
62	5	47	48
63	4	47	49
64	8	49	50
65	11	50	51
66	11	50	52
67	11	50	53
68	5	54	55
69	4	54	56
70	5	56	57
71	4	58	59
72	4	58	67
73	5	59	60
74	4	59	61
75	5	61	62
76	4	61	63
77	5	63	64
78	4	63	65
79	5	65	66
80	4	65	67
81	6	67	68
82	12	68	69
83	10	68	70
84	1	70	71
85	4	71	72
86	4	71	80
87	5	72	73
88	4	72	74
89	5	74	75
90	4	74	76
91	5	76	77
92	4	76	78
93	5	78	79
94	4	78	80
95	5	80	81
96	5	82	83
97	4	82	84
98	5	84	85
99	8	86	87
100	4	86	91
101	11	87	88
102	11	87	89
103	11	87	90
104	5	91	92
105	5	93	94
106	4	93	95
107	5	95	96
108	12	98	99
109	6	98	100
110	4	100	101
111	4	100	127
112	5	101	102
113	4	101	103
114	5	103	104
115	4	103	105
116	6	105	106
117	4	105	125
118	12	106	107
119	6	106	108
120	4	108	109
121	4	108	123
122	5	109	110
123	4	109	111
124	5	111	112
125	4	111	113
126	6	113	114
127	4	113	118
128	12	114	115
129	13	114	116
130	14	116	117
131	6	118	119
132	4	118	123
133	12	119	120
134	13	119	121
135	14	121	122
136	5	123	124
137	5	125	126
138	4	125	127
139	6	127	128
140	12	128	129
141	6	128	228
142	1	130	131
143	2	130	227
144	4	131	132
145	4	131	225
146	5	132	133
147	4	132	134
148	5	134	135
149	4	134	136
150	6	136	137
151	4	136	223
152	4	137	138
153	4	137	221
154	5	138	139
155	4	138	140
156	5	140	141
157	4	140	142
158	7	142	143
159	4	142	216
160	7	143	144
161	4	144	145
162	4	144	214
163	5	145	146
164	4	145	147
165	5	147	148
166	4	147	149
167	8	149	150
168	4	149	212
169	8	150	151
170	8	150	188
171	9	150	200
172	4	151	152
173	4	151	186
174	5	152	153
175	4	152	154
176	5	154	155
177	4	154	156
178	7	156	157
179	4	156	184
180	7	157	158
181	4	158	159
182	4	158	179
183	5	159	160
184	4	159	161
185	5	161	162
186	4	161	163
187	6	163	164
188	4	163	177
189	4	164	165
190	4	164	175
191	5	165	166
192	4	165	167
193	5	167	168
194	4	167	169
195	1	169	170
196	4	169	173
197	2	170	171
198	2	170	172
199	5	173	174
200	4	173	175
201	5	175	176
202	5	177	178
203	4	177	179
204	8	179	180
205	11	180	181
206	11	180	182
207	11	180	183
208	5	184	185
209	4	184	186
210	5	186	187
211	4	188	189
212	4	188	197
213	5	189	190
214	4	189	191
215	5	191	192
216	4	191	193
217	5	193	194
218	4	193	195
219	5	195	196
220	4	195	197
221	6	197	198
222	12	198	199
223	10	198	200
224	1	200	201
225	4	201	202
226	4	201	210
227	5	202	203
228	4	202	204
229	5	204	205
230	4	204	206
231	5	206	207
232	4	206	208
233	5	208	209
234	4	208	210
235	5	210	211
236	5	212	213
237	4	212	214
238	5	214	215
239	8	216	217
240	4	216	221
241	11	217	218
242	11	217	219
243	11	217	220
244	5	221	222
245	5	223	224
246	4	223	225
247	5	225	226
248	12	228	229
249	6	228	230
250	4	230	231
251	4	230	257
252	5	231	232
253	4	231	233
254	5	233	234
255	4	233	235
256	6	235	236
257	4	235	255
258	12	236	237
259	6	236	238
260	4	238	239
261	4	238	253
262	5	239	240
263	4	239	241
264	5	241	242
265	4	241	243
266	6	243	244
267	4	243	248
268	12	244	245
269	13	244	246
270	14	246	247
271	6	248	249
272	4	248	253
273	12	249	250
274	13	249	251
275	14	251	252
276	5	253	254
277	5	255	256
278	4	255	257
279	6	257	258
280	12	258	259
281	13	258	260
282	14	260	261

Angles

1	1	70	71	80
2	1	59	61	63
3	1	137	138	140
4	1	107	106	108
5	9	115	114	116
6	6	218	217	220
7	6	20	21	70
8	2	40	41	98
9	1	28	27	54
10	4	73	72	74
11	2	68	70	71
12	1	145	144	214
13	4	160	159	161
14	4	224	223	225
15	6	179	180	181
16	1	238	253	248
17	1	233	235	236
18	1	236	238	239
19	3	169	170	172
20	1	169	173	175
21	1	244	243	248
22	2	150	200	198
23	4	104	103	105
24	4	29	30	31
25	1	129	128	228
26	6	149	150	200
27	4	86	91	92
28	1	237	236	238
29	4	240	239	241
30	1	248	249	251
31	4	17	16	18
32	4	76	78	79
33	8	197	198	199
34	4	213	212	214
35	1	163	164	175
36	1	14	13	86
37	1	143	144	145
38	1	228	230	257
39	1	217	216	221
40	1	136	137	221
41	4	109	111	112
42	1	147	149	150
43	1	35	45	43
44	1	257	258	259
45	4	44	43	45
46	1	142	216	217
47	4	137	221	222
48	1	3	5	7
49	4	190	189	191
50	5	156	157	158
51	4	35	36	37
52	4	6	5	7
53	9	250	249	251
54	4	24	23	25
55	4	94	93	95
56	1	16	15	84
57	1	113	118	123
58	4	178	177	179
59	6	181	180	182
60	4	173	175	176
61	6	49	50	53
62	1	163	177	179
63	1	243	248	249
64	6	52	50	53
65	4	164	175	176
66	4	8	9	10
67	1	28	29	49
68	1	231	230	257
69	6	149	150	151
70	1	131	132	134
71	4	230	231	232
72	4	141	140	142
73	4	168	167	169
74	2	21	70	71
75	4	207	206	208
76	3	97	1	130
77	1	16	18	20
78	1	204	206	208
79	4	59	61	62
80	4	137	138	139
81	1	38	40	43
82	1	98	100	127
83	6	151	150	188
84	6	218	217	219
85	1	191	193	195
86	1	21	22	56
87	4	30	32	33
88	1	200	201	210
89	4	238	253	254
90	3	1	130	227
91	1	106	108	123
92	1	188	197	198
93	6	20	21	22
94	3	169	170	171
95	4	27	54	55
96	4	223	225	226
97	1	9	11	13
98	1	70	71	72
99	4	48	47	49
100	4	194	193	195
101	4	189	191	192
102	1	201	210	208
103	1	21	58	67
104	1	113	114	115
105	1	87	86	91
106	1	103	105	106
107	4	4	3	5
108	1	144	145	147
109	6	88	87	90
110	4	63	65	66
111	1	74	76	78
112	1	193	195	197
113	2	150	200	201
114	1	7	8	91
115	1	58	59	61
116	6	182	180	183
117	1	35	34	47
118	1	167	169	170
119	4	43	45	46
120	1	25	27	54
121	6	86	87	90
122	4	22	23	24
123	1	105	106	108
124	1	108	109	111
125	1	158	179	180
126	1	7	93	95
127	4	205	204	206
128	1	106	108	109
129	1	151	152	154
130	1	1	2	3
131	4	93	95	96
132	4	35	45	46
133	4	105	125	126
134	6	219	217	220
135	5	244	246	247
136	4	16	18	19
137	3	42	41	98
138	1	118	119	121
139	1	72	71	80
140	4	10	9	11
141	8	67	68	69
142	6	89	87	90
143	4	235	255	256
144	1	150	188	197
145	6	216	217	218
146	4	62	61	63
147	4	156	184	185
148	1	202	204	206
149	1	138	140	142
150	1	101	103	105
151	1	200	201	202
152	1	8	7	93
153	3	171	170	172
154	1	11	13	86
155	4	174	173	175
156	1	61	63	65
157	4	112	111	113
158	1	71	72	74
159	4	39	38	40
160	1	143	144	214
161	1	40	43	45
162	1	158	159	161
163	6	151	150	200
164	1	128	228	230
165	6	51	50	52
166	1	113	118	119
167	1	41	98	99
168	1	230	257	255
169	1	127	128	129
170	1	130	131	132
171	1	158	179	177
172	1	130	131	225
173	1	30	29	49
174	6	179	180	183
175	1	8	9	11
176	1	241	243	248
177	1	13	86	87
178	4	23	25	26
179	4	144	145	146
180	6	88	87	89
181	1	188	189	191
182	4	193	195	196
183	4	2	3	4
184	3	40	41	42
185	1	238	239	241
186	4	203	202	204
187	1	239	241	243
188	1	99	98	100
189	5	13	14	15
190	1	157	156	184
191	4	75	74	76
192	4	201	210	211
193	5	258	260	261
194	1	140	142	143
195	1	106	105	125
196	1	131	225	223
197	1	229	228	230
198	4	36	38	39
199	1	34	47	49
200	1	5	7	8
201	1	29	49	47
202	1	140	142	216
203	1	13	86	91
204	4	192	191	193
205	6	22	21	58
206	1	201	202	204
207	1	32	34	47
208	1	14	15	84
209	1	138	137	221
210	4	64	63	65
211	6	188	150	200
212	1	167	169	173
213	1	23	22	56
214	1	177	179	180
215	4	184	186	187
216	4	242	241	243
217	1	132	134	136
218	1	152	151	186
219	4	216	221	222
220	1	159	161	163
221	4	19	18	20
222	1	36	35	45
223	1	137	136	223
224	1	11	13	14
225	1	149	212	214
226	1	144	214	212
227	4	138	140	141
228	1	47	49	50
229	4	61	63	64
230	4	71	72	73
231	4	169	173	174
232	1	249	248	253
233	4	40	43	44
234	1	34	35	36
235	4	102	101	103
236	1	101	100	127
237	1	231	233	235
238	1	239	238	253
239	1	100	127	125
240	4	135	134	136
241	9	245	244	246
242	1	248	249	250
243	1	150	149	212
244	1	71	80	78
245	1	233	235	255
246	4	79	78	80
247	1	154	156	184
248	4	146	145	147
249	1	15	16	18
250	4	55	54	56
251	1	151	186	184
252	1	164	165	167
253	5	114	116	117
254	4	238	239	240
255	4	209	208	210
256	4	3	5	6
257	1	100	101	103
258	1	29	30	32
259	6	58	21	70
260	1	145	147	149
261	1	136	223	225
262	1	21	20	82
263	1	111	113	118
264	1	230	257	258
265	1	76	78	80
266	6	49	50	52
267	1	157	158	179
268	4	163	177	178
269	1	170	169	173
270	1	7	8	9
271	1	157	158	159
272	1	154	156	157
273	1	236	235	255
274	4	31	30	32
275	1	109	111	113
276	4	201	202	203
277	4	131	132	133
278	4	185	184	186
279	1	59	58	67
280	1	72	74	76
281	5	27	28	29
282	1	35	36	38
283	4	204	206	207
284	3	2	1	97
285	1	228	230	231
286	5	142	143	144
287	1	9	8	91
288	4	196	195	197
289	8	199	198	200
290	4	191	193	194
291	4	232	231	233
292	4	131	225	226
293	1	14	15	16
294	4	110	109	111
295	1	241	243	244
296	9	259	258	260
297	6	22	21	70
298	1	18	20	21
299	4	15	84	85
300	4	155	154	156
301	1	28	29	30
302	1	230	231	233
303	1	137	221	216
304	4	82	84	85
305	4	126	125	127
306	4	54	56	57
307	4	9	11	12
308	4	231	233	234
309	1	189	188	197
310	1	8	91	86
311	1	30	32	34
312	1	29	49	50
313	1	132	131	225
314	6	216	217	220
315	1	103	105	125
316	4	144	214	215
317	2	2	1	130
318	1	109	108	123
319	1	152	154	156
320	4	12	11	13
321	4	15	16	17
322	1	119	118	123
323	4	74	76	77
324	4	164	165	166
325	4	139	138	140
326	1	27	54	56
327	1	161	163	164
328	1	164	163	177
329	1	22	56	54
330	4	100	101	102
331	5	249	251	252
332	4	58	59	60
333	1	147	149	212
334	4	145	147	148
335	1	100	127	128
336	4	136	223	224
337	1	189	191	193
338	1	98	100	101
339	6	86	87	89
340	1	105	106	107
341	4	108	109	110
342	1	113	114	116
343	7	21	58	59
344	4	71	80	81
345	1	235	236	238
346	6	49	50	51
347	4	162	161	163
348	2	198	200	201
349	4	7	93	94
350	1	165	167	169
351	1	159	158	179
352	1	150	151	186
353	1	20	82	84
354	4	66	65	67
355	4	151	152	153
356	1	15	84	82
357	1	63	65	67
358	1	21	22	23
359	4	151	186	187
360	1	161	163	177
361	1	134	136	137
362	4	77	76	78
363	1	58	67	68
364	4	72	74	75
365	3	131	130	227
366	4	248	253	254
367	1	38	40	41
368	1	118	119	120
369	4	8	91	92
370	1	3	2	95
371	6	20	21	58
372	1	22	23	25
373	1	165	164	175
374	1	127	128	228
375	4	202	204	205
376	1	243	244	246
377	4	101	103	104
378	4	208	210	211
379	1	25	27	28
380	8	69	68	70
381	1	202	201	210
382	1	105	125	127
383	1	142	216	221
384	1	1	2	95
385	1	34	35	45
386	4	83	82	84
387	1	206	208	210
388	4	78	80	81
389	4	158	159	160
390	1	134	136	223
391	1	18	20	82
392	4	133	132	134
393	1	128	228	229
394	1	67	68	70
395	1	235	255	257
396	6	149	150	188
397	6	216	217	219
398	1	111	113	114
399	7	150	188	189
400	1	156	184	186
401	1	243	248	253
402	4	234	233	235
403	6	179	180	182
404	7	65	67	68
405	1	125	127	128
406	4	166	165	167
407	4	152	154	155
408	4	188	189	190
409	4	2	95	96
410	1	150	151	152
411	1	58	67	65
412	4	239	241	242
413	1	108	123	118
414	6	51	50	53
415	4	153	152	154
416	1	41	98	100
417	6	86	87	88
418	1	235	236	237
419	4	60	59	61
420	1	197	198	200
421	5	119	121	122
422	4	165	167	168
423	4	148	147	149
424	4	34	47	48
425	1	164	175	173
426	4	256	255	257
427	1	136	137	138
428	1	23	25	27
429	4	20	82	83
430	1	236	238	253
431	1	163	164	165
432	7	195	197	198
433	1	2	3	5
434	4	212	214	215
435	1	257	258	260
436	4	37	36	38
437	1	32	34	35
438	2	21	70	68
439	4	22	56	57
440	4	118	123	124
441	1	255	257	258
442	4	132	134	135
443	2	1	130	131
444	4	159	161	162
445	6	181	180	183
446	4	33	32	34
447	1	41	40	43
448	1	36	38	40
449	4	149	212	213
450	1	243	244	245
451	9	120	119	121
452	4	26	25	27
453	1	188	197	195
454	1	143	142	216
455	1	114	113	118
456	1	2	95	93
457	1	5	7	93
458	4	206	208	209
459	4	108	123	124

Dihedrals

1	1	22	23	25	26
2	1	169	173	175	176
3	4	221	137	136	223
4	1	17	16	18	19
5	2	225	131	130	227
6	5	13	14	15	84
7	15	42	41	98	99
7	16	42	41	98	99
8	1	61	63	65	66
9	1	72	71	80	81
10	1	59	61	63	64
11	2	68	70	71	72
12	1	162	161	163	177
13	14	246	244	243	248
14	1	234	233	235	236
15	1	241	243	248	249
16	1	1	2	3	4
17	1	200	201	202	203
18	14	120	119	118	123
19	1	238	239	241	242
20	1	143	144	145	147
21	1	25	23	22	56
22	1	98	100	101	103
23	1	134	132	131	225
24	1	164	165	167	169
25	6	18	20	21	58
26	4	134	136	137	138
27	14	113	118	119	120
28	1	191	193	195	196
29	1	194	193	195	197
30	1	2	3	5	6
31	1	62	61	63	64
32	6	158	179	180	181
33	14	251	249	248	253
34	14	250	249	248	253
35	1	3	2	95	96
36	1	18	20	82	84
37	1	111	109	108	123
38	1	150	151	152	153
39	1	9	11	13	14
40	1	98	100	127	125
41	17	118	119	121	122
42	4	138	137	136	223
43	2	172	170	169	173
44	1	130	131	132	134
45	1	150	151	186	187
46	1	230	257	255	256
47	1	41	40	43	44
48	1	163	164	175	176
49	1	101	100	127	125
50	1	26	25	27	28
51	1	139	138	137	221
52	1	119	118	123	124
53	1	158	159	161	162
54	6	151	150	149	212
55	6	151	150	188	189
56	17	113	114	116	117
57	1	164	163	177	179
58	1	34	35	45	46
59	1	144	145	147	148
60	1	202	204	206	207
61	7	58	21	70	71
61	8	58	21	70	71
62	6	189	188	150	200
63	6	67	58	21	70
64	14	237	236	235	255
65	1	21	58	67	65
66	1	55	54	56	57
67	14	107	106	108	109
68	1	132	131	225	226
69	1	147	149	212	214
70	1	240	239	238	253
71	7	20	21	70	68
71	8	20	21	70	68
72	1	36	38	40	41
73	1	109	111	113	118
74	1	160	159	161	163
75	6	22	21	20	82
76	6	47	49	50	51
77	1	28	27	54	55
78	1	156	184	186	187
79	1	203	202	204	206
80	1	114	113	118	123
81	1	83	82	84	85
82	1	10	9	11	13
83	1	108	123	118	119
84	1	32	34	47	48
85	1	72	71	80	78
86	6	142	216	217	218
87	1	8	91	86	13
88	1	23	25	27	54
89	1	188	189	191	193
90	1	140	138	137	221
91	1	58	59	61	63
92	1	209	208	210	211
93	18	259	258	260	261
93	19	259	258	260	261
94	1	21	22	23	24
95	1	170	169	173	174
96	9	21	70	68	69
97	1	161	163	177	178
98	1	240	239	241	242
99	14	235	236	238	253
100	14	127	128	228	229
101	1	22	56	54	27
102	1	151	152	154	156
103	1	167	169	173	175
104	1	30	32	34	47
105	1	59	58	67	65
106	1	23	22	56	54
107	1	72	74	76	78
108	1	168	167	169	170
109	1	204	206	208	209
110	7	188	150	200	198
110	8	188	150	200	198
111	1	14	15	16	18
112	1	37	36	38	40
113	1	150	188	189	190
114	1	236	238	253	248
115	4	165	164	163	177
116	14	128	228	230	231
117	1	152	151	186	184
118	1	100	127	125	126
119	1	8	7	93	95
120	1	192	191	193	195
121	1	190	189	191	193
122	3	97	1	130	131
123	5	25	27	28	29
124	1	102	101	103	105
125	1	163	164	165	167
126	1	143	144	145	146
127	1	36	35	45	46
128	1	230	257	255	235
129	1	98	100	101	102
130	1	70	71	80	81
131	1	164	165	167	168
132	1	15	84	82	20
133	7	58	21	70	68
133	8	58	21	70	68
134	6	89	87	86	91
135	1	164	175	173	174
136	1	113	118	123	124
137	1	136	137	221	216
138	1	79	78	80	81
139	1	154	156	184	185
140	4	134	136	137	221
141	1	142	216	221	222
142	5	13	14	15	16
143	1	25	27	54	56
144	12	40	41	98	100
144	13	40	41	98	100
145	6	88	87	86	91
146	1	111	113	118	123
147	14	65	67	68	70
148	6	177	179	180	181
149	1	105	125	127	128
150	2	1	130	131	132
151	1	148	147	149	150
152	1	132	134	136	137
153	2	167	169	170	172
154	1	205	204	206	207
155	1	4	3	5	7
156	1	189	191	193	195
157	1	130	131	225	223
158	1	11	13	86	91
159	1	60	59	61	63
160	1	164	163	177	178
161	14	111	113	114	116
162	18	120	119	121	122
162	19	120	119	121	122
163	1	5	3	2	95
164	1	12	11	13	86
165	1	110	109	111	112
166	6	20	21	22	56
167	14	235	236	238	239
168	14	243	248	249	251
169	2	38	40	41	42
170	1	141	140	142	143
171	1	150	149	212	213
172	1	9	8	91	86
173	1	203	202	204	205
174	6	186	151	150	188
175	1	150	188	197	195
176	1	98	100	127	128
177	1	165	167	169	170
178	5	142	143	144	214
179	1	174	173	175	176
180	1	132	134	136	223
181	1	103	101	100	127
182	1	101	100	127	128
183	1	143	144	214	212
184	2	132	131	130	227
185	1	188	189	191	192
186	5	154	156	157	158
187	6	219	217	216	221
188	1	58	59	61	62
189	6	149	150	188	197
190	14	255	257	258	260
191	1	36	35	45	43
192	9	67	68	70	71
193	1	28	29	30	31
194	4	91	8	7	93
195	1	160	159	158	179
196	1	228	230	257	255
197	1	231	233	235	236
198	1	21	58	67	68
199	1	154	152	151	186
200	6	13	86	87	89
201	7	20	21	70	71
201	8	20	21	70	71
202	1	104	103	105	106
203	6	29	49	50	51
204	6	20	21	58	67
205	1	165	164	175	173
206	1	207	206	208	210
207	4	5	7	8	91
208	1	15	16	18	19
209	9	150	200	198	199
210	5	158	157	156	184
211	1	167	169	173	174
212	1	236	238	253	254
213	1	31	30	32	34
214	1	14	15	84	82
215	1	14	15	16	17
216	18	250	249	251	252
216	19	250	249	251	252
217	6	147	149	150	188
218	14	58	67	68	70
219	1	77	76	78	79
220	1	192	191	193	194
221	1	8	7	93	94
222	1	75	74	76	77
223	1	190	189	191	192
224	14	238	236	235	255
225	1	157	158	159	161
226	1	5	7	93	95
227	1	106	108	109	110
228	1	102	101	103	104
229	14	115	114	113	118