Title

217 atoms
236 bonds
389 angles
595 dihedrals
348 impropers

10 atom types
13 bond types
8 angle types
16 dihedral types
3 improper types
-15.85999966 84.14000034 xlo xhi
-6.278999805 93.72100019 ylo yhi
-17.99699974 82.00300026 zlo zhi
0.0 0.0 0.0 xy xz yz

Masses

1	14.00672
2	12.01078
3	1.007947
4	15.99943
5	12.01078
6	1.007947
7	18.998403
8	15.99943
9	15.99943
10	1.007947


Pair Coeffs

1	0.16769152	3.206876
2	0.086879315	3.4806469
3	0.015611343	2.5725815
4	0.16846514	3.0251065
5	0.10884061	3.3795318
6	0.014090815	1.1034277
7	0.061	3.1181455
8	0.2102061	3.0398122
9	0.20947353	2.99716
10	1.2326e-05	0.53453923

Bond Coeffs

1 harmonic	390.03554688505	1.390160554689
2 harmonic	505.144496193	1.019481865027
3 harmonic	422.7150220147	1.421786517481
4 harmonic	360.7852444772	1.387193227181
5 harmonic	397.2545789619	1.085358495916
6 harmonic	279.1350963404	1.454628925034
7 harmonic	425.69104206635	1.362945806494
8 harmonic	289.73813263395	1.498646816465
9 harmonic	492.76746816345	1.381897776683
10 harmonic	340.45121009905	1.358690858053
11 harmonic	582.698766451	1.225198386222
12 harmonic	385.7604595587	1.369745182308
13 harmonic	543.5267831885	0.9716763312559


Angle Coeffs

1 harmonic	57.8982893754	126.8062420451
2 harmonic	55.42182150775	117.3465570514
3 harmonic	63.44422595415	115.5071327674
4 harmonic	34.066775159195	129.1835929926
5 harmonic	65.09061609600001	110.3538806181
6 harmonic	53.20531626545	116.5475862634
7 harmonic	14.32262199324	138.3184368373
8 harmonic	201.41175231035	127.4691416191


Dihedral Coeffs

1 fourier 1	3.661930099076	2	180
2 fourier 1	1.193093382682	2	180
3 fourier 1	0.02021088501612	1	0
4 fourier 1	1.163235555439	2	180
5 fourier 1	1.532232714475	2	180
6 fourier 1	0.02664938770063	3	0
7 fourier 1	3.101948770557	2	180
8 fourier 1	-0.4252153282372	1	0
9 fourier 1	1.809047390003	2	180
10 fourier 1	-0.04816277792592	1	0
11 fourier 1	0.9974165607242	2	180
12 fourier 1	2.348375642009	2	180
13 fourier 1	1.256156174911	1	0
14 fourier 1	2.687457892086	2	180
15 fourier 1	2.772607909663	2	180
16 fourier 1	0.09692684957115	1	0


Improper Coeffs

1 0.3666666666666667	-1	2
2 0.3333333333333333	-1	2
3 3.5	-1	2


Atoms

1	1	1	-0.413652	13.512	1.705	-0.51999998
2	1	2	0.122894	12.092	1.895	-0.50400001
3	1	2	-0.410184	11.269	0.87900001	-0.205
4	1	3	0.21778899	11.661	-0.097000003	0.043000001
5	1	2	-0.119171	9.8050003	1.077	-0.198
6	1	3	0.200744	9.1639996	0.237	0.035
7	1	2	-0.131128	9.2790003	2.28	-0.48800001
8	1	2	-0.137271	7.809	2.484	-0.46700001
9	1	2	-0.134794	7.1849999	3.098	-1.477
10	1	3	0.204052	7.7399998	3.4519999	-2.3310001
11	1	2	-0.29983699	5.711	3.184	-1.5039999
12	1	3	0.220284	5.2189999	3.576	-2.3840001
13	1	2	0.32501099	4.9850001	2.674	-0.51200002
14	1	4	-0.27611199	3.5940001	2.6170001	-0.67699999
15	1	2	0.260591	2.8039999	1.478	-0.44100001
16	1	2	-0.29655799	3.326	0.244	-0.34099999
17	1	3	0.22739699	4.3860002	0.075000003	-0.48800001
18	1	2	-0.125495	2.4619999	-0.90100002	0.014
19	1	3	0.21335401	2.9130001	-1.88	0.13
20	1	2	-0.105615	1.1390001	-0.73199999	0.21799999
21	1	5	0.211642	0.26499999	-1.929	0.602
22	1	2	-0.105615	-1.186	-1.551	0.96399999
23	1	2	-0.125495	-1.443	-0.77999997	2.046
24	1	3	0.21335401	-0.648	-0.36500001	2.6389999
25	1	2	-0.29655799	-2.822	-0.41999999	2.4200001
26	1	3	0.22739699	-2.9909999	0.175	3.312
27	1	2	0.260591	-3.8559999	-0.78500003	1.6569999
28	1	4	-0.27611199	-5.1350002	-0.384	2.0699999
29	1	2	0.32501099	-6.2199998	-0.102	1.232
30	1	2	-0.29983699	-6.8299999	-1.0700001	0.52999997
31	1	3	0.220284	-6.5009999	-2.099	0.616
32	1	2	-0.134794	-7.9980001	-0.75099999	-0.31600001
33	1	3	0.204052	-8.4359999	-1.546	-0.89300001
34	1	2	-0.137271	-8.5050001	0.5	-0.345
35	1	2	-0.131128	-9.7089996	0.838	-1.161
36	1	2	-0.13307799	-10.703	-0.057999998	-1.339
37	1	3	0.200744	-10.646	-1.0599999	-0.93000001
38	1	2	-0.37854201	-11.938	0.315	-2.049
39	1	3	0.21438	-12.731	-0.42500001	-2.1559999
40	1	2	0.195243	-12.098	1.561	-2.5120001
41	1	1	-0.53378302	-13.33	1.949	-3.1270001
42	1	6	0.31758299	-13.481	2.934	-3.447
43	1	2	-0.37854201	-11	2.536	-2.368
44	1	3	0.21438	-11.113	3.5369999	-2.7539999
45	1	2	-0.13307799	-9.8690004	2.198	-1.735
46	1	3	0.200744	-9.073	2.938	-1.638
47	1	2	-0.061377	-7.8499999	1.564	0.479
48	1	3	0.203201	-8.2749996	2.563	0.48699999
49	1	2	-0.32556	-6.7509999	1.288	1.2029999
50	1	5	0.76486498	-6.0370002	2.358	1.9859999
51	1	7	-0.212678	-6.6599998	3.585	1.865
52	1	7	-0.212678	-4.7329998	2.4860001	1.536
53	1	7	-0.212678	-6.013	2.0039999	3.3199999
54	1	2	-0.29655799	-3.598	-1.5930001	0.43900001
55	1	3	0.22739699	-4.402	-1.909	-0.20299999
56	1	2	-0.125495	-2.3510001	-1.987	0.14
57	1	3	0.21335401	-2.2190001	-2.6099999	-0.73100001
58	1	2	-0.048719	0.87599999	-2.7260001	1.758
59	1	2	-0.052843999	1.3200001	-2.27	2.9400001
60	1	3	0.210869	1.28	-1.225	3.1989999
61	1	2	-0.27373201	1.9119999	-3.224	3.9059999
62	1	3	0.218509	2.227	-2.8659999	4.8769999
63	1	2	-0.23692501	2.0480001	-4.5219998	3.5840001
64	1	3	0.213015	2.4630001	-5.2140002	4.303
65	1	2	-0.186287	1.64	-5.0009999	2.24
66	1	3	0.20033801	1.821	-6.0289998	1.951
67	1	2	-0.0085500004	1.0829999	-4.125	1.399
68	1	2	-0.0085500004	0.74699998	-4.2800002	0.0049999999
69	1	2	-0.186287	0.926	-5.3340001	-0.79699999
70	1	3	0.20033801	1.291	-6.2789998	-0.41800001
71	1	2	-0.23692501	0.625	-5.1849999	-2.2349999
72	1	3	0.213015	0.73199999	-6.0359998	-2.8959999
73	1	2	-0.27373201	0.25099999	-3.9879999	-2.723
74	1	3	0.218509	0.078000002	-3.878	-3.7880001
75	1	2	-0.052843999	0.121	-2.809	-1.823
76	1	3	0.210869	-0.16500001	-1.846	-2.2190001
77	1	2	-0.048719	0.32600001	-2.9779999	-0.50700003
78	1	2	-0.125495	0.55400002	0.616	-0.028000001
79	1	3	0.21335401	-0.51499999	0.77100003	0.023
80	1	2	-0.29655799	1.344	1.654	-0.322
81	1	3	0.22739699	0.917	2.6329999	-0.491
82	1	2	-0.32556	5.6760001	2.1789999	0.72500002
83	1	5	0.76486498	4.9310002	1.92	2.0209999
84	1	7	-0.212678	3.7149999	2.573	2.0420001
85	1	7	-0.212678	4.7199998	0.56300002	2.181
86	1	7	-0.212678	5.6700001	2.395	3.092
87	1	2	-0.061377	7.0139999	2.029	0.699
88	1	3	0.203201	7.5370002	1.65	1.5700001
89	1	2	-0.119171	10.192	3.3989999	-0.82200003
90	1	3	0.200744	9.79	4.3759999	-1.045
91	1	2	-0.410184	11.519	3.2179999	-0.829
92	1	3	0.21778899	12.18	4.046	-1.068
93	1	6	0.370446	13.935	0.77499998	-0.29499999
94	1	2	0.76608402	-14.12	1.25	-3.266
95	1	8	-0.665443	-15.212	1.653	-3.75
96	1	2	-0.35630101	-13.921	-0.163	-2.8929999
97	1	2	-0.079426996	-14.896	-1.076	-3.0539999
98	1	3	0.219724	-15.86	-0.801	-3.464
99	1	2	-0.246929	-14.667	-2.484	-2.671
100	1	3	0.208974	-15.457	-3.211	-2.8039999
101	1	2	-0.028049	-13.489	-2.859	-2.161
102	1	3	0.21907701	-13.336	-3.895	-1.885
103	1	2	-0.29569101	-12.402	-1.864	-1.977
104	1	2	0.58586198	-11.101	-2.2690001	-1.416
105	1	8	-0.53755897	-10.885	-3.464	-1.082
106	1	2	0.052299	-12.616	-0.58399999	-2.3269999
107	1	3	0.236829	-11.833	0.155	-2.1989999
108	1	1	-0.413652	14.152	2.5090001	-0.70899999
109	1	2	0.122894	15.354	2.319	-1.466
110	1	2	-0.410184	16.208	3.335	-1.661
111	1	3	0.21778899	16.011999	4.3109999	-1.24
112	1	2	-0.119171	17.441	3.1370001	-2.4489999
113	1	3	0.200744	18.106001	3.977	-2.6010001
114	1	2	-0.131128	17.725	1.934	-2.9790001
115	1	2	-0.137271	18.972	1.73	-3.7579999
116	1	2	-0.134794	18.948999	1.1160001	-4.9450002
117	1	3	0.204052	18.018999	0.76200002	-5.3610001
118	1	2	-0.29983699	20.172001	1.03	-5.7680001
119	1	3	0.220284	20.108	0.63800001	-6.7729998
120	1	2	0.32501099	21.32	1.54	-5.3280001
121	1	4	-0.27611199	22.399	1.597	-6.2220001
122	1	2	0.260591	23.190001	2.7360001	-6.4520001
123	1	2	-0.29655799	22.806999	3.97	-6.0840001
124	1	3	0.22739699	21.836	4.1389999	-5.6329999
125	1	2	-0.125495	23.724001	5.1149998	-6.2550001
126	1	3	0.21335401	23.409	6.0939999	-5.9130001
127	1	2	-0.105615	24.947001	4.9460001	-6.802
128	1	5	0.211642	25.889999	6.1430001	-6.9520001
129	1	2	-0.105615	27.304001	5.7649999	-7.4359999
130	1	2	-0.125495	28.108	4.994	-6.6669998
131	1	3	0.21335401	27.761	4.579	-5.737
132	1	2	-0.29655799	29.469	4.6339998	-7.1009998
133	1	3	0.22739699	30.094999	4.039	-6.4429998
134	1	2	0.260591	29.923	4.9990001	-8.302
135	1	4	-0.27611199	31.223	4.598	-8.6490002
136	1	2	0.32501099	31.679001	4.316	-9.9420004
137	1	2	-0.29983699	31.811001	5.2839999	-10.862
138	1	3	0.220284	31.58	6.3130002	-10.612
139	1	2	-0.134794	32.333	4.9650002	-12.206
140	1	3	0.204052	32.387001	5.7600002	-12.929
141	1	2	-0.137271	32.743	3.714	-12.506
142	1	2	-0.131128	33.312	3.3759999	-13.844
143	1	2	-0.082696997	34.049999	4.2719998	-14.534
144	1	3	0.200744	34.223999	5.2740002	-14.159
145	1	2	-0.454236	34.702	3.8989999	-15.8
146	1	3	0.226165	35.310001	4.6389999	-16.32
147	1	2	0.312682	34.584999	2.6530001	-16.275
148	1	1	-0.84649903	35.286999	2.2650001	-17.461
149	1	6	0.36293799	35.865002	2.9519999	-17.997
150	1	6	0.36293799	35.240002	1.28	-17.811001
151	1	2	-0.454236	33.742001	1.678	-15.559
152	1	3	0.226165	33.626999	0.67699999	-15.945
153	1	2	-0.082696997	33.133999	2.016	-14.414
154	1	3	0.200744	32.518002	1.276	-13.9
155	1	2	-0.061377	32.639999	2.6500001	-11.458
156	1	3	0.203201	33.000999	1.651	-11.682
157	1	2	-0.32556	32.109001	2.9260001	-10.254
158	1	5	0.76486498	31.934	1.8559999	-9.21
159	1	7	-0.212678	32.391998	0.62900001	-9.6490002
160	1	7	-0.212678	30.594999	1.728	-8.8789997
161	1	7	-0.212678	32.638	2.21	-8.0760002
162	1	2	-0.29655799	29.046	5.8070002	-9.1859999
163	1	3	0.22739699	29.372999	6.1230001	-10.161
164	1	2	-0.125495	27.836	6.2010002	-8.7600002
165	1	3	0.21335401	27.253	6.8239999	-9.4209995
166	1	2	-0.048719	26.003	6.9400001	-5.651
167	1	2	-0.052843999	26.271999	6.4840002	-4.4159999
168	1	3	0.210869	26.445999	5.4390001	-4.2210002
169	1	2	-0.27373201	26.298	7.4380002	-3.2839999
170	1	3	0.218509	26.561001	7.0799999	-2.2980001
171	1	2	-0.23692501	26.01	8.7360001	-3.4809999
172	1	3	0.213015	26.049999	9.4280005	-2.651
173	1	2	-0.186287	25.622999	9.2150002	-4.8309999
174	1	3	0.20033801	25.313999	10.243	-4.9749999
175	1	2	-0.0085500004	25.634001	8.3389997	-5.8400002
176	1	2	-0.0085500004	25.16	8.4940004	-7.1929998
177	1	2	-0.186287	24.576	9.5480003	-7.7690001
178	1	3	0.20033801	24.474001	10.493	-7.2529998
179	1	2	-0.23692501	24.048	9.3990002	-9.1409998
180	1	3	0.213015	23.599001	10.25	-9.6379995
181	1	2	-0.27373201	24.097	8.2019997	-9.7539997
182	1	3	0.218509	23.665001	8.092	-10.742
183	1	2	-0.052843999	24.695	7.0229998	-9.0679998
184	1	3	0.210869	24.719999	6.0599999	-9.5559998
185	1	2	-0.048719	25.237	7.1919999	-7.8509998
186	1	2	-0.125495	25.305	3.598	-7.3260002
187	1	3	0.21335401	26.23	3.4430001	-7.8629999
188	1	2	-0.29655799	24.482	2.5599999	-7.1440001
189	1	3	0.22739699	24.749001	1.581	-7.5180001
190	1	2	-0.32556	21.410999	2.0350001	-3.914
191	1	5	0.76486498	22.739	2.2939999	-3.23
192	1	7	-0.212678	23.771999	1.641	-3.8710001
193	1	7	-0.212678	23.004	3.651	-3.2090001
194	1	7	-0.212678	22.698999	1.819	-1.929
195	1	2	-0.061377	20.273001	2.1849999	-3.21
196	1	3	0.203201	20.306	2.5639999	-2.1949999
197	1	2	-0.119171	16.778	0.815	-2.7639999
198	1	3	0.200744	16.993999	-0.162	-3.1700001
199	1	2	-0.410184	15.659	0.99599999	-2.049
200	1	3	0.21778899	14.975	0.168	-1.892
201	1	6	0.370446	13.919	3.4389999	-0.28999999
202	1	2	0.58586198	-10.313	-1.539	-1.284
203	1	8	-0.53755897	-9.8719997	-0.92799997	-2.2939999
204	1	2	-0.29120001	-9.7770004	-1.276	0.064999998
205	1	2	-0.028049	-8.7980003	-0.37599999	0.26899999
206	1	3	0.21907701	-8.3730001	0.185	-0.55400002
207	1	2	-0.248079	-8.283	-0.13500001	1.631
208	1	3	0.208974	-7.4949999	0.59100002	1.785
209	1	2	-0.065466002	-8.7849998	-0.81	2.671
210	1	3	0.230161	-8.3940001	-0.61900002	3.6619999
211	1	2	-0.22085001	-9.8660002	-1.807	2.467
212	1	2	0.83701098	-10.412	-2.546	3.628
213	1	8	-0.49607199	-11.33	-3.3970001	3.4749999
214	1	9	-0.66703397	-9.9119997	-2.3050001	4.9050002
215	1	10	0.41519099	-10.276	-2.802	5.7080002
216	1	2	0.068897001	-10.332	-2.0220001	1.221
217	1	3	0.24688201	-11.12	-2.7449999	1.046

Bonds

1	1	1	2
2	2	1	93
3	3	1	108
4	4	2	3
5	4	2	91
6	5	3	4
7	4	3	5
8	5	5	6
9	4	5	7
10	6	7	8
11	4	7	89
12	4	8	9
13	4	8	87
14	5	9	10
15	4	9	11
16	5	11	12
17	4	11	13
18	7	13	14
19	4	13	82
20	7	14	15
21	4	15	16
22	4	15	80
23	5	16	17
24	4	16	18
25	5	18	19
26	4	18	20
27	8	20	21
28	4	20	78
29	8	21	22
30	8	21	58
31	8	21	77
32	4	22	23
33	4	22	56
34	5	23	24
35	4	23	25
36	5	25	26
37	4	25	27
38	7	27	28
39	4	27	54
40	7	28	29
41	4	29	30
42	4	29	49
43	5	30	31
44	4	30	32
45	5	32	33
46	4	32	34
47	6	34	35
48	4	34	47
49	4	35	36
50	4	35	45
51	5	36	37
52	4	36	38
53	5	38	39
54	4	38	40
55	1	40	41
56	4	40	43
57	2	41	42
58	9	41	94
59	5	43	44
60	4	43	45
61	5	45	46
62	5	47	48
63	4	47	49
64	8	49	50
65	10	50	51
66	10	50	52
67	10	50	53
68	5	54	55
69	4	54	56
70	5	56	57
71	4	58	59
72	4	58	67
73	5	59	60
74	4	59	61
75	5	61	62
76	4	61	63
77	5	63	64
78	4	63	65
79	5	65	66
80	4	65	67
81	6	67	68
82	4	68	69
83	4	68	77
84	5	69	70
85	4	69	71
86	5	71	72
87	4	71	73
88	5	73	74
89	4	73	75
90	5	75	76
91	4	75	77
92	5	78	79
93	4	78	80
94	5	80	81
95	8	82	83
96	4	82	87
97	10	83	84
98	10	83	85
99	10	83	86
100	5	87	88
101	5	89	90
102	4	89	91
103	5	91	92
104	11	94	95
105	6	94	96
106	4	96	97
107	4	96	106
108	5	97	98
109	4	97	99
110	5	99	100
111	4	99	101
112	5	101	102
113	4	101	103
114	6	103	104
115	4	103	106
116	11	104	105
117	6	104	202
118	5	106	107
119	1	108	109
120	2	108	201
121	4	109	110
122	4	109	199
123	5	110	111
124	4	110	112
125	5	112	113
126	4	112	114
127	6	114	115
128	4	114	197
129	4	115	116
130	4	115	195
131	5	116	117
132	4	116	118
133	5	118	119
134	4	118	120
135	7	120	121
136	4	120	190
137	7	121	122
138	4	122	123
139	4	122	188
140	5	123	124
141	4	123	125
142	5	125	126
143	4	125	127
144	8	127	128
145	4	127	186
146	8	128	129
147	8	128	166
148	8	128	185
149	4	129	130
150	4	129	164
151	5	130	131
152	4	130	132
153	5	132	133
154	4	132	134
155	7	134	135
156	4	134	162
157	7	135	136
158	4	136	137
159	4	136	157
160	5	137	138
161	4	137	139
162	5	139	140
163	4	139	141
164	6	141	142
165	4	141	155
166	4	142	143
167	4	142	153
168	5	143	144
169	4	143	145
170	5	145	146
171	4	145	147
172	1	147	148
173	4	147	151
174	2	148	149
175	2	148	150
176	5	151	152
177	4	151	153
178	5	153	154
179	5	155	156
180	4	155	157
181	8	157	158
182	10	158	159
183	10	158	160
184	10	158	161
185	5	162	163
186	4	162	164
187	5	164	165
188	4	166	167
189	4	166	175
190	5	167	168
191	4	167	169
192	5	169	170
193	4	169	171
194	5	171	172
195	4	171	173
196	5	173	174
197	4	173	175
198	6	175	176
199	4	176	177
200	4	176	185
201	5	177	178
202	4	177	179
203	5	179	180
204	4	179	181
205	5	181	182
206	4	181	183
207	5	183	184
208	4	183	185
209	5	186	187
210	4	186	188
211	5	188	189
212	8	190	191
213	4	190	195
214	10	191	192
215	10	191	193
216	10	191	194
217	5	195	196
218	5	197	198
219	4	197	199
220	5	199	200
221	11	202	203
222	6	202	204
223	4	204	205
224	4	204	216
225	5	205	206
226	4	205	207
227	5	207	208
228	4	207	209
229	5	209	210
230	4	209	211
231	6	211	212
232	4	211	216
233	11	212	213
234	12	212	214
235	13	214	215
236	5	216	217

Angles

1	1	116	115	195
2	1	212	211	216
3	4	152	151	153
4	4	102	101	103
5	1	3	2	91
6	4	22	23	24
7	1	28	29	49
8	1	125	127	186
9	4	197	199	200
10	1	36	38	40
11	4	109	199	200
12	4	114	197	198
13	4	178	177	179
14	4	109	110	111
15	1	173	175	176
16	6	192	191	194
17	1	69	68	77
18	6	127	128	166
19	4	147	151	152
20	4	206	205	207
21	4	35	36	37
22	1	99	101	103
23	1	1	2	91
24	1	97	96	106
25	6	51	50	53
26	4	9	11	12
27	4	97	99	100
28	6	166	128	185
29	1	65	67	68
30	1	128	127	186
31	5	134	135	136
32	1	112	114	197
33	4	60	59	61
34	4	146	145	147
35	1	141	142	153
36	1	135	134	162
37	4	119	118	120
38	1	204	216	211
39	4	205	207	208
40	4	3	5	6
41	4	66	65	67
42	1	128	129	164
43	2	40	41	94
44	1	94	96	106
45	1	16	18	20
46	4	78	80	81
47	6	193	191	194
48	4	156	155	157
49	6	159	158	160
50	1	25	27	28
51	4	151	153	154
52	1	202	204	216
53	4	22	56	57
54	1	114	115	195
55	1	34	35	45
56	1	21	22	56
57	4	79	78	80
58	1	211	212	213
59	1	58	67	68
60	4	48	47	49
61	1	166	167	169
62	1	122	188	186
63	4	29	30	31
64	1	129	130	132
65	1	175	176	177
66	4	36	38	39
67	1	135	136	157
68	1	148	147	151
69	1	135	136	137
70	6	160	158	161
71	6	192	191	193
72	1	23	25	27
73	1	104	103	106
74	4	82	87	88
75	4	37	36	38
76	4	163	162	164
77	1	32	34	35
78	1	118	120	121
79	7	21	58	59
80	4	99	101	102
81	1	128	129	130
82	1	5	7	89
83	1	142	143	145
84	6	51	50	52
85	1	8	7	89
86	6	22	21	58
87	4	43	45	46
88	4	187	186	188
89	6	58	21	77
90	4	15	80	81
91	1	8	9	11
92	1	11	13	82
93	4	24	23	25
94	1	22	56	54
95	1	41	40	43
96	1	127	186	188
97	4	210	209	211
98	4	15	16	17
99	4	100	99	101
100	1	141	142	143
101	4	133	132	134
102	1	203	202	204
103	4	35	45	46
104	1	61	63	65
105	4	204	216	217
106	1	209	211	216
107	1	63	65	67
108	5	212	214	215
109	1	58	67	65
110	4	34	47	48
111	1	177	176	185
112	1	123	122	188
113	1	38	40	43
114	4	70	69	71
115	6	52	50	53
116	8	213	212	214
117	1	130	132	134
118	1	7	8	9
119	1	167	166	175
120	6	157	158	161
121	4	10	9	11
122	1	142	141	155
123	4	115	116	117
124	4	59	61	62
125	1	101	103	106
126	1	83	82	87
127	4	96	97	98
128	1	14	13	82
129	6	84	83	86
130	1	110	112	114
131	4	129	130	131
132	1	177	179	181
133	4	17	16	18
134	1	7	89	91
135	1	15	80	78
136	4	113	112	114
137	1	143	145	147
138	4	186	188	189
139	1	41	94	96
140	1	122	123	125
141	1	115	195	190
142	4	31	30	32
143	4	23	25	26
144	1	116	118	120
145	1	13	82	87
146	1	16	15	80
147	4	6	5	7
148	6	82	83	86
149	3	2	1	93
150	1	35	45	43
151	1	136	137	139
152	4	211	216	217
153	1	125	127	128
154	1	169	171	173
155	1	121	122	123
156	4	142	143	144
157	1	112	114	115
158	4	122	188	189
159	4	68	69	70
160	1	139	141	142
161	4	180	179	181
162	6	49	50	51
163	1	136	157	155
164	1	67	68	77
165	4	89	91	92
166	1	23	22	56
167	4	162	164	165
168	1	130	129	164
169	1	155	157	158
170	3	42	41	94
171	6	85	83	86
172	1	32	34	47
173	1	179	181	183
174	1	40	43	45
175	4	90	89	91
176	1	69	71	73
177	4	126	125	127
178	6	129	128	166
179	4	63	65	66
180	1	204	205	207
181	1	139	141	155
182	5	27	28	29
183	1	30	32	34
184	1	141	155	157
185	1	104	202	204
186	1	202	204	205
187	1	134	162	164
188	1	129	164	162
189	6	20	21	77
190	4	27	54	55
191	4	44	43	45
192	1	71	73	75
193	4	130	132	133
194	1	20	78	80
195	6	157	158	160
196	4	176	177	178
197	6	190	191	193
198	1	123	125	127
199	4	168	167	169
200	5	13	14	15
201	1	145	147	151
202	1	132	134	162
203	1	68	77	75
204	1	1	2	3
205	6	84	83	85
206	4	110	112	113
207	4	62	61	63
208	1	103	104	105
209	4	7	89	90
210	4	143	145	146
211	1	120	190	195
212	1	95	94	96
213	1	58	59	61
214	1	41	94	95
215	4	122	123	124
216	1	47	49	50
217	6	127	128	185
218	4	116	118	119
219	4	74	73	75
220	4	96	106	107
221	4	144	143	145
222	1	209	211	212
223	4	169	171	172
224	3	40	41	42
225	1	25	27	54
226	1	73	75	77
227	1	35	34	47
228	1	132	134	135
229	1	191	190	195
230	4	170	169	171
231	1	176	185	183
232	3	147	148	150
233	1	29	49	47
234	1	147	151	153
235	4	184	183	185
236	1	142	153	151
237	4	40	43	44
238	4	179	181	182
239	4	69	71	72
240	1	8	87	82
241	3	1	108	201
242	4	16	18	19
243	3	93	1	108
244	1	145	147	148
245	1	97	99	101
246	4	30	32	33
247	1	136	157	158
248	4	141	155	156
249	1	104	202	203
250	1	38	40	41
251	1	67	68	69
252	4	111	110	112
253	1	167	169	171
254	1	14	15	16
255	4	103	106	107
256	1	36	35	45
257	1	13	82	83
258	4	20	78	79
259	4	12	11	13
260	1	108	109	199
261	6	190	191	192
262	1	2	3	5
263	4	123	125	126
264	1	5	7	8
265	1	9	8	87
266	1	207	209	211
267	4	72	71	73
268	1	101	103	104
269	4	166	167	168
270	1	114	115	116
271	1	143	142	153
272	4	129	164	165
273	4	8	9	10
274	4	124	123	125
275	6	20	21	22
276	1	121	120	190
277	1	103	104	202
278	4	174	173	175
279	7	128	185	183
280	4	8	87	88
281	4	73	75	76
282	1	29	30	32
283	4	54	56	57
284	1	14	15	80
285	4	127	186	187
286	1	11	13	14
287	1	2	91	89
288	4	55	54	56
289	3	147	148	149
290	1	128	185	176
291	4	61	63	64
292	5	120	121	122
293	1	166	175	173
294	1	30	29	49
295	7	21	77	75
296	1	128	166	175
297	1	21	58	67
298	6	22	21	77
299	6	49	50	53
300	4	140	139	141
301	4	19	18	20
302	4	167	169	170
303	1	181	183	185
304	1	18	20	78
305	1	120	190	191
306	1	15	16	18
307	4	115	195	196
308	4	33	32	34
309	2	2	1	108
310	1	29	49	50
311	1	21	22	23
312	4	190	195	196
313	4	142	153	154
314	4	2	3	4
315	1	96	106	103
316	4	207	209	210
317	1	94	96	97
318	1	171	173	175
319	1	34	47	49
320	1	137	139	141
321	1	21	77	68
322	4	182	181	183
323	4	177	179	180
324	1	109	199	197
325	4	208	207	209
326	4	98	97	99
327	1	34	35	36
328	1	205	204	216
329	4	131	130	132
330	1	21	20	78
331	6	82	83	85
332	4	136	137	138
333	1	115	116	118
334	1	59	61	63
335	4	198	197	199
336	1	115	114	197
337	1	96	97	99
338	1	59	58	67
339	3	109	108	201
340	1	22	23	25
341	1	118	120	190
342	1	28	29	30
343	4	76	75	77
344	1	114	197	199
345	1	109	110	112
346	4	117	116	118
347	6	129	128	185
348	1	35	36	38
349	4	204	205	206
350	1	68	69	71
351	6	127	128	129
352	6	49	50	52
353	6	20	21	58
354	4	134	162	163
355	1	108	109	110
356	1	28	27	54
357	4	181	183	184
358	4	71	73	74
359	1	105	104	202
360	4	26	25	27
361	1	18	20	21
362	1	110	109	199
363	4	2	91	92
364	4	4	3	5
365	1	205	207	209
366	1	3	5	7
367	4	64	63	65
368	6	157	158	159
369	3	149	148	150
370	1	137	136	157
371	1	166	175	176
372	4	171	173	174
373	4	137	139	140
374	6	159	158	161
375	7	128	166	167
376	1	175	176	185
377	1	9	11	13
378	1	121	122	188
379	1	27	54	56
380	4	39	38	40
381	4	172	171	173
382	4	58	59	60
383	2	1	108	109
384	1	211	212	214
385	4	138	137	139
386	1	7	8	87
387	1	176	177	179
388	6	190	191	194
389	6	82	83	84

Dihedrals

1	1	66	65	67	68
2	1	96	106	103	101
3	6	120	190	191	192
4	1	168	167	169	171
5	1	32	30	29	49
6	1	100	99	101	103
7	6	47	49	50	51
8	1	135	136	137	139
9	1	22	56	54	27
10	1	128	129	130	131
11	4	5	7	8	9
12	1	15	80	78	79
13	1	15	16	18	19
14	4	58	67	68	69
15	1	8	9	11	13
16	1	206	205	207	209
17	1	191	190	195	196
18	6	136	157	158	161
19	1	127	186	188	189
20	2	91	2	1	108
21	1	29	30	32	33
22	1	24	23	25	26
23	6	155	157	158	159
24	1	22	23	25	26
25	1	175	176	177	179
26	1	111	110	112	113
27	1	8	7	89	91
28	1	109	110	112	114
29	1	19	18	20	78
30	1	207	205	204	216
31	1	166	175	173	174
32	1	177	179	181	182
33	2	1	108	109	199
34	6	13	82	83	85
35	1	14	15	16	17
36	1	72	71	73	75
37	1	110	109	199	200
38	1	70	69	71	73
39	1	5	7	89	91
40	1	99	97	96	106
41	1	8	87	82	13
42	1	41	40	43	45
43	1	32	34	47	49
44	1	128	166	175	173
45	1	62	61	63	64
46	11	41	94	96	106
47	1	118	116	115	195
48	11	203	202	204	216
49	1	24	23	22	56
50	1	2	3	5	7
51	11	104	202	204	205
52	1	130	132	134	162
53	1	143	142	153	154
54	1	115	116	118	119
55	1	21	20	78	79
56	6	129	128	127	186
57	1	170	169	171	172
58	9	42	41	94	96
58	10	42	41	94	96
59	1	202	204	216	211
60	1	12	11	13	14
61	1	123	122	188	189
62	1	176	185	183	184
63	1	37	36	35	45
64	1	169	171	173	174
65	1	74	73	75	77
66	1	37	36	38	39
67	1	117	116	118	120
68	6	125	127	128	185
69	1	18	20	78	79
70	6	22	21	77	75
71	1	114	197	199	200
72	6	127	128	129	164
73	5	25	27	28	29
74	1	70	69	68	77
75	1	58	59	61	62
76	1	141	155	157	158
77	1	128	129	164	162
78	1	34	35	45	43
79	1	59	61	63	65
80	1	25	27	54	55
81	1	68	69	71	73
82	1	109	199	197	114
83	2	199	109	108	201
84	1	130	132	134	135
85	1	23	25	27	28
86	4	32	34	35	36
87	1	117	116	115	195
88	1	71	73	75	77
89	11	106	103	104	202
90	1	124	123	125	127
91	1	35	36	38	39
92	1	30	32	34	35
93	1	21	77	75	73
94	1	20	78	80	81
95	6	130	129	128	185
96	1	120	190	195	196
97	1	23	22	56	54
98	1	125	127	186	188
99	1	139	141	155	156
100	1	129	164	162	134
101	1	3	2	91	92
102	1	168	167	169	170
103	1	1	2	91	92
104	1	100	99	101	102
105	5	15	14	13	82
106	1	135	136	137	138
107	1	14	15	80	81
108	1	156	155	157	158
109	5	132	134	135	136
110	1	133	132	134	162
111	4	195	115	114	197
112	1	35	45	43	40
113	1	206	205	207	208
114	1	128	185	183	181
115	1	61	59	58	67
116	1	9	11	13	82
117	6	136	157	158	160
118	1	96	97	99	101
119	1	60	59	58	67
120	1	163	162	164	165
121	1	115	114	197	199
122	15	213	212	214	215
122	16	213	212	214	215
123	1	146	145	147	151
124	4	65	67	68	69
125	1	125	123	122	188
126	1	207	209	211	216
127	1	69	71	73	75
128	2	110	109	108	201
129	1	205	204	216	217
130	1	8	7	89	90
131	1	113	112	114	197
132	1	176	185	183	181
133	1	96	106	103	104
134	6	67	58	21	77
135	1	27	54	56	57
136	1	142	143	145	146
137	6	18	20	21	22
138	1	19	18	20	21
139	1	114	115	195	196
140	1	124	123	122	188
141	1	5	7	89	90
142	1	208	207	209	211
143	1	212	211	216	217
144	1	34	47	49	50
145	1	118	120	190	195
146	1	2	3	5	6
147	1	97	99	101	103
148	11	214	212	211	216
149	6	127	128	129	130
150	1	133	132	134	135
151	1	104	103	106	107
152	1	21	22	23	25
153	1	177	176	185	183
154	1	139	137	136	157
155	1	110	112	114	197
156	1	119	118	120	121
157	6	192	191	190	195
158	6	185	128	127	186
159	1	99	101	103	104
160	1	8	87	82	83
161	1	121	120	190	191
162	1	202	204	216	217
163	1	109	199	197	198
164	1	3	2	91	89
165	1	3	5	7	89
166	1	74	73	75	76
167	1	1	2	91	89
168	1	16	18	20	78
169	4	173	175	176	185
170	1	172	171	173	175
171	1	174	173	175	176
172	1	14	15	80	78
173	1	83	82	87	88
174	1	10	9	11	13
175	6	164	129	128	166
176	1	64	63	65	67
177	1	123	125	127	186
178	1	114	115	116	118
179	1	59	61	63	64
180	1	48	47	49	50
181	1	59	58	67	65
182	1	14	13	82	87
183	1	179	181	183	184
184	1	21	58	59	60
185	3	2	1	108	201
186	1	141	142	153	154
187	6	193	191	190	195
188	1	67	68	69	70
189	1	1	2	3	4
190	6	29	49	50	53
191	1	129	130	132	134
192	1	138	137	136	157
193	1	123	125	127	128
194	1	142	153	151	147
195	1	18	16	15	80
196	2	43	40	41	94
197	1	94	96	97	98
198	1	179	177	176	185
199	1	138	137	139	140
200	6	23	22	21	58
201	1	4	3	2	91
202	1	148	147	151	153
203	2	38	40	41	42
204	1	128	129	164	165
205	1	136	157	155	156
206	1	34	35	45	46
207	6	136	157	158	159
208	2	1	108	109	110
209	1	137	139	141	142
210	1	98	97	99	101
211	1	39	38	40	43
212	1	55	54	56	57
213	1	102	101	103	104
214	1	166	167	169	171
215	1	9	11	13	14
216	1	35	34	47	48
217	1	69	71	73	74
218	1	21	77	75	76
219	1	21	22	56	54
220	1	23	22	56	57
221	1	31	30	32	34
222	1	204	216	211	209
223	1	10	9	11	12
224	1	208	207	209	210
225	6	77	21	20	78
226	6	22	21	58	67
227	1	16	15	80	78
228	1	144	143	145	147
229	1	116	115	195	196
230	11	203	202	204	205
231	11	105	104	202	204
232	1	97	99	101	102
233	1	7	8	9	11
234	2	3	2	1	108
235	1	33	32	34	47
236	1	128	185	183	184
237	1	204	205	207	209
238	1	137	139	141	155
239	1	17	16	18	20
240	1	115	195	190	120
241	1	21	22	23	24
242	6	155	157	158	161
243	6	56	22	21	77
244	1	141	142	153	151
245	1	132	134	162	163
246	1	61	63	65	66
247	1	115	195	190	191
248	1	28	29	30	31
249	1	38	36	35	45
250	4	87	8	7	89
251	5	29	28	27	54
252	1	36	35	45	43
253	1	7	89	91	92
254	1	38	40	43	44
255	1	8	9	11	12
256	1	128	166	167	169
257	6	58	21	77	75
258	1	142	141	155	157
259	1	16	18	20	21
260	2	145	147	148	150
261	4	112	114	115	116
262	1	64	63	65	66
263	1	63	65	67	68
264	1	6	5	7	89
265	1	2	91	89	7
266	4	32	34	35	45
267	2	149	148	147	151
268	1	169	167	166	175
269	1	180	179	181	182
270	1	178	177	179	180
271	1	205	207	209	211
272	1	131	130	129	164
273	1	207	209	211	212
274	1	67	68	77	75
275	11	95	94	96	97
276	1	126	125	127	186
277	1	129	164	162	163
278	6	18	20	21	58
279	1	134	162	164	165
280	5	118	120	121	122
281	4	116	115	114	197
282	6	20	21	77	75
283	1	136	137	139	141
284	6	29	49	50	52
285	1	116	118	120	190
286	1	176	177	179	181
287	1	202	204	205	207
288	1	108	109	199	200
289	1	121	122	123	125
290	1	21	58	67	68
291	1	58	67	65	63
292	4	139	141	142	143
293	1	111	110	109	199
294	1	101	103	106	107
295	4	173	175	176	177
296	6	22	21	77	68
297	1	26	25	27	28
298	5	120	121	122	188
299	1	118	120	190	191
300	6	58	21	77	68
301	1	79	78	80	81
302	1	126	125	127	128
303	1	148	147	151	152
304	4	58	67	68	77
305	11	209	211	212	214
306	6	166	128	185	183
307	1	122	123	125	127
308	1	60	59	61	63
309	1	59	58	67	68
310	1	15	80	78	20
311	1	135	134	162	164
312	1	113	112	114	115
313	1	166	167	169	170
314	1	5	3	2	91
315	9	40	41	94	96
315	10	40	41	94	96
316	1	175	176	177	178
317	1	147	151	153	154
318	5	11	13	14	15
319	1	140	139	141	142
320	6	22	21	20	78
321	1	171	173	175	176
322	1	109	110	112	113
323	1	145	143	142	153
324	6	20	21	77	68
325	1	121	122	188	189
326	1	31	30	32	33
327	1	94	96	106	107
328	6	84	83	82	87
329	6	13	82	83	84
330	1	72	71	73	74
331	1	30	29	49	47
332	1	70	69	71	72
333	1	41	40	43	44
334	1	32	34	47	48
335	1	6	5	7	8
336	11	105	104	202	203
337	6	23	22	21	77
338	1	28	27	54	56
339	1	23	25	27	54
340	6	166	128	185	176
341	1	110	112	114	115
342	1	14	13	82	83
343	1	24	23	25	27
344	1	128	127	186	188
345	6	166	128	127	186
346	12	42	41	94	95
346	13	42	41	94	95
347	1	22	23	25	27
348	1	36	38	40	43
349	1	140	139	141	155
350	1	69	68	77	75
351	1	21	22	56	57
352	6	86	83	82	87
353	1	204	216	211	212
354	1	14	15	16	18
355	1	26	25	27	54
356	1	108	109	199	197
357	1	21	58	67	65
358	1	117	116	118	119
359	1	21	77	68	67
360	4	9	8	7	89
361	1	108	109	110	112
362	1	128	166	167	168
363	1	16	15	80	81
364	11	103	104	202	204
365	5	134	135	136	157
366	1	142	141	155	156
367	2	145	147	148	149
368	4	36	35	34	47
369	5	134	135	136	137
370	5	136	135	134	162
371	1	115	116	118	120
372	5	122	121	120	190
373	1	68	69	71	72
374	1	21	20	78	80
375	1	9	8	87	82
376	2	150	148	147	151
377	14	211	212	214	215
378	2	91	2	1	93
379	1	205	207	209	210
380	1	71	73	75	76
381	1	124	123	125	126
382	1	99	101	103	106
383	1	128	185	176	175
384	1	136	137	139	140
385	1	29	49	47	48
386	1	97	96	106	107
387	1	125	127	186	187
388	1	121	122	188	186
389	1	37	36	38	40
390	1	121	122	123	124
391	1	36	35	45	46
392	4	139	141	142	153
393	6	59	58	21	77
394	1	17	16	15	80
395	1	4	3	5	7
396	6	58	21	20	78
397	1	58	59	61	63
398	11	209	211	212	213
399	3	93	1	108	201
400	1	60	59	61	62
401	1	25	27	54	56
402	1	96	97	99	100
403	1	115	114	197	198
404	1	135	134	162	163
405	4	65	67	68	77
406	1	34	35	36	38
407	1	175	176	185	183
408	1	30	32	34	47
409	1	11	9	8	87
410	4	143	142	141	155
411	1	10	9	8	87
412	6	18	20	21	77
413	1	3	5	7	8
414	1	139	141	155	157
415	1	167	166	175	176
416	1	168	167	166	175
417	6	120	190	191	194
418	1	13	82	87	88
419	6	130	129	128	166
420	1	137	136	157	155
421	6	47	49	50	53
422	6	129	128	185	183
423	1	144	143	142	153
424	3	2	1	108	109
425	6	127	128	185	183
426	1	40	43	45	46
427	1	130	129	164	162
428	1	145	147	151	153
429	11	101	103	104	105
430	1	28	27	54	55
431	4	5	7	8	87
432	1	182	181	183	185
433	1	11	13	82	87
434	1	9	8	87	88
435	1	2	91	89	90
436	1	128	127	186	187
437	1	135	136	157	155
438	1	205	204	216	211
439	1	102	101	103	106
440	1	31	30	29	49
441	1	90	89	91	92
442	1	122	188	186	127
443	6	20	21	58	67
444	1	7	8	87	82
445	1	112	114	197	199
446	1	131	130	132	134
447	1	29	49	47	34
448	1	142	143	145	147
449	3	93	1	108	109