Title

217 atoms
236 bonds
389 angles
595 dihedrals
348 impropers

10 atom types
13 bond types
8 angle types
16 dihedral types
3 improper types
-15.85999966 84.14000034 xlo xhi
-6.278999805 93.72100019 ylo yhi
-17.99699974 82.00300026 zlo zhi
0.0 0.0 0.0 xy xz yz

Masses

1	14.00672
2	12.01078
3	1.007947
4	15.99943
5	12.01078
6	1.007947
7	18.998403
8	15.99943
9	15.99943
10	1.007947


Pair Coeffs

1	0.16769152	3.206876
2	0.086879315	3.4806469
3	0.015611343	2.5725815
4	0.16846514	3.0251065
5	0.10884061	3.3795318
6	0.014090815	1.1034277
7	0.061	3.1181455
8	0.2102061	3.0398122
9	0.20947353	2.99716
10	1.2326e-05	0.53453923

Bond Coeffs

1 harmonic	390.03554688505	1.390160554689
2 harmonic	505.144496193	1.019481865027
3 harmonic	422.7150220147	1.421786517481
4 harmonic	360.7852444772	1.387193227181
5 harmonic	397.2545789619	1.085358495916
6 harmonic	279.1350963404	1.454628925034
7 harmonic	425.69104206635	1.362945806494
8 harmonic	289.73813263395	1.498646816465
9 harmonic	492.76746816345	1.381897776683
10 harmonic	340.45121009905	1.358690858053
11 harmonic	582.698766451	1.225198386222
12 harmonic	385.7604595587	1.369745182308
13 harmonic	543.5267831885	0.9716763312559


Angle Coeffs

1 harmonic	57.8982893754	126.8062420451
2 harmonic	55.42182150775	117.3465570514
3 harmonic	63.44422595415	115.5071327674
4 harmonic	34.066775159195	129.1835929926
5 harmonic	65.09061609600001	110.3538806181
6 harmonic	53.20531626545	116.5475862634
7 harmonic	14.32262199324	138.3184368373
8 harmonic	201.41175231035	127.4691416191


Dihedral Coeffs

1 fourier 1	3.661930099076	2	180
2 fourier 1	1.193093382682	2	180
3 fourier 1	0.02021088501612	1	0
4 fourier 1	1.163235555439	2	180
5 fourier 1	1.532232714475	2	180
6 fourier 1	0.02664938770063	3	0
7 fourier 1	3.101948770557	2	180
8 fourier 1	-0.4252153282372	1	0
9 fourier 1	1.809047390003	2	180
10 fourier 1	-0.04816277792592	1	0
11 fourier 1	0.9974165607242	2	180
12 fourier 1	2.348375642009	2	180
13 fourier 1	1.256156174911	1	0
14 fourier 1	2.687457892086	2	180
15 fourier 1	2.772607909663	2	180
16 fourier 1	0.09692684957115	1	0


Improper Coeffs

1 0.3666666666666667	-1	2
2 0.3333333333333333	-1	2
3 3.5	-1	2


Atoms

1	1	1	-0.413652	13.512	1.705	-0.51999998
2	1	2	0.122894	12.092	1.895	-0.50400001
3	1	2	-0.410184	11.269	0.87900001	-0.205
4	1	3	0.21778899	11.661	-0.097000003	0.043000001
5	1	2	-0.119171	9.8050003	1.077	-0.198
6	1	3	0.200744	9.1639996	0.237	0.035
7	1	2	-0.131128	9.2790003	2.28	-0.48800001
8	1	2	-0.137271	7.809	2.484	-0.46700001
9	1	2	-0.134794	7.1849999	3.098	-1.477
10	1	3	0.204052	7.7399998	3.4519999	-2.3310001
11	1	2	-0.29983699	5.711	3.184	-1.5039999
12	1	3	0.220284	5.2189999	3.576	-2.3840001
13	1	2	0.32501099	4.9850001	2.674	-0.51200002
14	1	4	-0.27611199	3.5940001	2.6170001	-0.67699999
15	1	2	0.260591	2.8039999	1.478	-0.44100001
16	1	2	-0.29655799	3.326	0.244	-0.34099999
17	1	3	0.22739699	4.3860002	0.075000003	-0.48800001
18	1	2	-0.125495	2.4619999	-0.90100002	0.014
19	1	3	0.21335401	2.9130001	-1.88	0.13
20	1	2	-0.105615	1.1390001	-0.73199999	0.21799999
21	1	5	0.211642	0.26499999	-1.929	0.602
22	1	2	-0.105615	-1.186	-1.551	0.96399999
23	1	2	-0.125495	-1.443	-0.77999997	2.046
24	1	3	0.21335401	-0.648	-0.36500001	2.6389999
25	1	2	-0.29655799	-2.822	-0.41999999	2.4200001
26	1	3	0.22739699	-2.9909999	0.175	3.312
27	1	2	0.260591	-3.8559999	-0.78500003	1.6569999
28	1	4	-0.27611199	-5.1350002	-0.384	2.0699999
29	1	2	0.32501099	-6.2199998	-0.102	1.232
30	1	2	-0.29983699	-6.8299999	-1.0700001	0.52999997
31	1	3	0.220284	-6.5009999	-2.099	0.616
32	1	2	-0.134794	-7.9980001	-0.75099999	-0.31600001
33	1	3	0.204052	-8.4359999	-1.546	-0.89300001
34	1	2	-0.137271	-8.5050001	0.5	-0.345
35	1	2	-0.131128	-9.7089996	0.838	-1.161
36	1	2	-0.13307799	-10.703	-0.057999998	-1.339
37	1	3	0.200744	-10.646	-1.0599999	-0.93000001
38	1	2	-0.37854201	-11.938	0.315	-2.049
39	1	3	0.21438	-12.731	-0.42500001	-2.1559999
40	1	2	0.195243	-12.098	1.561	-2.5120001
41	1	1	-0.53378302	-13.33	1.949	-3.1270001
42	1	6	0.31758299	-13.481	2.934	-3.447
43	1	2	-0.37854201	-11	2.536	-2.368
44	1	3	0.21438	-11.113	3.5369999	-2.7539999
45	1	2	-0.13307799	-9.8690004	2.198	-1.735
46	1	3	0.200744	-9.073	2.938	-1.638
47	1	2	-0.061377	-7.8499999	1.564	0.479
48	1	3	0.203201	-8.2749996	2.563	0.48699999
49	1	2	-0.32556	-6.7509999	1.288	1.2029999
50	1	5	0.76486498	-6.0370002	2.358	1.9859999
51	1	7	-0.212678	-6.6599998	3.585	1.865
52	1	7	-0.212678	-4.7329998	2.4860001	1.536
53	1	7	-0.212678	-6.013	2.0039999	3.3199999
54	1	2	-0.29655799	-3.598	-1.5930001	0.43900001
55	1	3	0.22739699	-4.402	-1.909	-0.20299999
56	1	2	-0.125495	-2.3510001	-1.987	0.14
57	1	3	0.21335401	-2.2190001	-2.6099999	-0.73100001
58	1	2	-0.048719	0.87599999	-2.7260001	1.758
59	1	2	-0.052843999	1.3200001	-2.27	2.9400001
60	1	3	0.210869	1.28	-1.225	3.1989999
61	1	2	-0.27373201	1.9119999	-3.224	3.9059999
62	1	3	0.218509	2.227	-2.8659999	4.8769999
63	1	2	-0.23692501	2.0480001	-4.5219998	3.5840001
64	1	3	0.213015	2.4630001	-5.2140002	4.303
65	1	2	-0.186287	1.64	-5.0009999	2.24
66	1	3	0.20033801	1.821	-6.0289998	1.951
67	1	2	-0.0085500004	1.0829999	-4.125	1.399
68	1	2	-0.0085500004	0.74699998	-4.2800002	0.0049999999
69	1	2	-0.186287	0.926	-5.3340001	-0.79699999
70	1	3	0.20033801	1.291	-6.2789998	-0.41800001
71	1	2	-0.23692501	0.625	-5.1849999	-2.2349999
72	1	3	0.213015	0.73199999	-6.0359998	-2.8959999
73	1	2	-0.27373201	0.25099999	-3.9879999	-2.723
74	1	3	0.218509	0.078000002	-3.878	-3.7880001
75	1	2	-0.052843999	0.121	-2.809	-1.823
76	1	3	0.210869	-0.16500001	-1.846	-2.2190001
77	1	2	-0.048719	0.32600001	-2.9779999	-0.50700003
78	1	2	-0.125495	0.55400002	0.616	-0.028000001
79	1	3	0.21335401	-0.51499999	0.77100003	0.023
80	1	2	-0.29655799	1.344	1.654	-0.322
81	1	3	0.22739699	0.917	2.6329999	-0.491
82	1	2	-0.32556	5.6760001	2.1789999	0.72500002
83	1	5	0.76486498	4.9310002	1.92	2.0209999
84	1	7	-0.212678	3.7149999	2.573	2.0420001
85	1	7	-0.212678	4.7199998	0.56300002	2.181
86	1	7	-0.212678	5.6700001	2.395	3.092
87	1	2	-0.061377	7.0139999	2.029	0.699
88	1	3	0.203201	7.5370002	1.65	1.5700001
89	1	2	-0.119171	10.192	3.3989999	-0.82200003
90	1	3	0.200744	9.79	4.3759999	-1.045
91	1	2	-0.410184	11.519	3.2179999	-0.829
92	1	3	0.21778899	12.18	4.046	-1.068
93	1	6	0.370446	13.935	0.77499998	-0.29499999
94	1	2	0.76608402	-14.12	1.25	-3.266
95	1	8	-0.665443	-15.212	1.653	-3.75
96	1	2	-0.35630101	-13.921	-0.163	-2.8929999
97	1	2	-0.079426996	-14.896	-1.076	-3.0539999
98	1	3	0.219724	-15.86	-0.801	-3.464
99	1	2	-0.246929	-14.667	-2.484	-2.671
100	1	3	0.208974	-15.457	-3.211	-2.8039999
101	1	2	-0.028049	-13.489	-2.859	-2.161
102	1	3	0.21907701	-13.336	-3.895	-1.885
103	1	2	-0.29569101	-12.402	-1.864	-1.977
104	1	2	0.58586198	-11.101	-2.2690001	-1.416
105	1	8	-0.53755897	-10.885	-3.464	-1.082
106	1	2	0.052299	-12.616	-0.58399999	-2.3269999
107	1	3	0.236829	-11.833	0.155	-2.1989999
108	1	1	-0.413652	14.152	2.5090001	-0.70899999
109	1	2	0.122894	15.354	2.319	-1.466
110	1	2	-0.410184	16.208	3.335	-1.661
111	1	3	0.21778899	16.011999	4.3109999	-1.24
112	1	2	-0.119171	17.441	3.1370001	-2.4489999
113	1	3	0.200744	18.106001	3.977	-2.6010001
114	1	2	-0.131128	17.725	1.934	-2.9790001
115	1	2	-0.137271	18.972	1.73	-3.7579999
116	1	2	-0.134794	18.948999	1.1160001	-4.9450002
117	1	3	0.204052	18.018999	0.76200002	-5.3610001
118	1	2	-0.29983699	20.172001	1.03	-5.7680001
119	1	3	0.220284	20.108	0.63800001	-6.7729998
120	1	2	0.32501099	21.32	1.54	-5.3280001
121	1	4	-0.27611199	22.399	1.597	-6.2220001
122	1	2	0.260591	23.190001	2.7360001	-6.4520001
123	1	2	-0.29655799	22.806999	3.97	-6.0840001
124	1	3	0.22739699	21.836	4.1389999	-5.6329999
125	1	2	-0.125495	23.724001	5.1149998	-6.2550001
126	1	3	0.21335401	23.409	6.0939999	-5.9130001
127	1	2	-0.105615	24.947001	4.9460001	-6.802
128	1	5	0.211642	25.889999	6.1430001	-6.9520001
129	1	2	-0.105615	27.304001	5.7649999	-7.4359999
130	1	2	-0.125495	28.108	4.994	-6.6669998
131	1	3	0.21335401	27.761	4.579	-5.737
132	1	2	-0.29655799	29.469	4.6339998	-7.1009998
133	1	3	0.22739699	30.094999	4.039	-6.4429998
134	1	2	0.260591	29.923	4.9990001	-8.302
135	1	4	-0.27611199	31.223	4.598	-8.6490002
136	1	2	0.32501099	31.679001	4.316	-9.9420004
137	1	2	-0.29983699	31.811001	5.2839999	-10.862
138	1	3	0.220284	31.58	6.3130002	-10.612
139	1	2	-0.134794	32.333	4.9650002	-12.206
140	1	3	0.204052	32.387001	5.7600002	-12.929
141	1	2	-0.137271	32.743	3.714	-12.506
142	1	2	-0.131128	33.312	3.3759999	-13.844
143	1	2	-0.082696997	34.049999	4.2719998	-14.534
144	1	3	0.200744	34.223999	5.2740002	-14.159
145	1	2	-0.454236	34.702	3.8989999	-15.8
146	1	3	0.226165	35.310001	4.6389999	-16.32
147	1	2	0.312682	34.584999	2.6530001	-16.275
148	1	1	-0.84649903	35.286999	2.2650001	-17.461
149	1	6	0.36293799	35.865002	2.9519999	-17.997
150	1	6	0.36293799	35.240002	1.28	-17.811001
151	1	2	-0.454236	33.742001	1.678	-15.559
152	1	3	0.226165	33.626999	0.67699999	-15.945
153	1	2	-0.082696997	33.133999	2.016	-14.414
154	1	3	0.200744	32.518002	1.276	-13.9
155	1	2	-0.061377	32.639999	2.6500001	-11.458
156	1	3	0.203201	33.000999	1.651	-11.682
157	1	2	-0.32556	32.109001	2.9260001	-10.254
158	1	5	0.76486498	31.934	1.8559999	-9.21
159	1	7	-0.212678	32.391998	0.62900001	-9.6490002
160	1	7	-0.212678	30.594999	1.728	-8.8789997
161	1	7	-0.212678	32.638	2.21	-8.0760002
162	1	2	-0.29655799	29.046	5.8070002	-9.1859999
163	1	3	0.22739699	29.372999	6.1230001	-10.161
164	1	2	-0.125495	27.836	6.2010002	-8.7600002
165	1	3	0.21335401	27.253	6.8239999	-9.4209995
166	1	2	-0.048719	26.003	6.9400001	-5.651
167	1	2	-0.052843999	26.271999	6.4840002	-4.4159999
168	1	3	0.210869	26.445999	5.4390001	-4.2210002
169	1	2	-0.27373201	26.298	7.4380002	-3.2839999
170	1	3	0.218509	26.561001	7.0799999	-2.2980001
171	1	2	-0.23692501	26.01	8.7360001	-3.4809999
172	1	3	0.213015	26.049999	9.4280005	-2.651
173	1	2	-0.186287	25.622999	9.2150002	-4.8309999
174	1	3	0.20033801	25.313999	10.243	-4.9749999
175	1	2	-0.0085500004	25.634001	8.3389997	-5.8400002
176	1	2	-0.0085500004	25.16	8.4940004	-7.1929998
177	1	2	-0.186287	24.576	9.5480003	-7.7690001
178	1	3	0.20033801	24.474001	10.493	-7.2529998
179	1	2	-0.23692501	24.048	9.3990002	-9.1409998
180	1	3	0.213015	23.599001	10.25	-9.6379995
181	1	2	-0.27373201	24.097	8.2019997	-9.7539997
182	1	3	0.218509	23.665001	8.092	-10.742
183	1	2	-0.052843999	24.695	7.0229998	-9.0679998
184	1	3	0.210869	24.719999	6.0599999	-9.5559998
185	1	2	-0.048719	25.237	7.1919999	-7.8509998
186	1	2	-0.125495	25.305	3.598	-7.3260002
187	1	3	0.21335401	26.23	3.4430001	-7.8629999
188	1	2	-0.29655799	24.482	2.5599999	-7.1440001
189	1	3	0.22739699	24.749001	1.581	-7.5180001
190	1	2	-0.32556	21.410999	2.0350001	-3.914
191	1	5	0.76486498	22.739	2.2939999	-3.23
192	1	7	-0.212678	23.771999	1.641	-3.8710001
193	1	7	-0.212678	23.004	3.651	-3.2090001
194	1	7	-0.212678	22.698999	1.819	-1.929
195	1	2	-0.061377	20.273001	2.1849999	-3.21
196	1	3	0.203201	20.306	2.5639999	-2.1949999
197	1	2	-0.119171	16.778	0.815	-2.7639999
198	1	3	0.200744	16.993999	-0.162	-3.1700001
199	1	2	-0.410184	15.659	0.99599999	-2.049
200	1	3	0.21778899	14.975	0.168	-1.892
201	1	6	0.370446	13.919	3.4389999	-0.28999999
202	1	2	0.58586198	-10.313	-1.539	-1.284
203	1	8	-0.53755897	-9.8719997	-0.92799997	-2.2939999
204	1	2	-0.29120001	-9.7770004	-1.276	0.064999998
205	1	2	-0.028049	-8.7980003	-0.37599999	0.26899999
206	1	3	0.21907701	-8.3730001	0.185	-0.55400002
207	1	2	-0.248079	-8.283	-0.13500001	1.631
208	1	3	0.208974	-7.4949999	0.59100002	1.785
209	1	2	-0.065466002	-8.7849998	-0.81	2.671
210	1	3	0.230161	-8.3940001	-0.61900002	3.6619999
211	1	2	-0.22085001	-9.8660002	-1.807	2.467
212	1	2	0.83701098	-10.412	-2.546	3.628
213	1	8	-0.49607199	-11.33	-3.3970001	3.4749999
214	1	9	-0.66703397	-9.9119997	-2.3050001	4.9050002
215	1	10	0.41519099	-10.276	-2.802	5.7080002
216	1	2	0.068897001	-10.332	-2.0220001	1.221
217	1	3	0.24688201	-11.12	-2.7449999	1.046

Bonds

1	1	1	2
2	2	1	93
3	3	1	108
4	4	2	3
5	4	2	91
6	5	3	4
7	4	3	5
8	5	5	6
9	4	5	7
10	6	7	8
11	4	7	89
12	4	8	9
13	4	8	87
14	5	9	10
15	4	9	11
16	5	11	12
17	4	11	13
18	7	13	14
19	4	13	82
20	7	14	15
21	4	15	16
22	4	15	80
23	5	16	17
24	4	16	18
25	5	18	19
26	4	18	20
27	8	20	21
28	4	20	78
29	8	21	22
30	8	21	58
31	8	21	77
32	4	22	23
33	4	22	56
34	5	23	24
35	4	23	25
36	5	25	26
37	4	25	27
38	7	27	28
39	4	27	54
40	7	28	29
41	4	29	30
42	4	29	49
43	5	30	31
44	4	30	32
45	5	32	33
46	4	32	34
47	6	34	35
48	4	34	47
49	4	35	36
50	4	35	45
51	5	36	37
52	4	36	38
53	5	38	39
54	4	38	40
55	1	40	41
56	4	40	43
57	2	41	42
58	9	41	94
59	5	43	44
60	4	43	45
61	5	45	46
62	5	47	48
63	4	47	49
64	8	49	50
65	10	50	51
66	10	50	52
67	10	50	53
68	5	54	55
69	4	54	56
70	5	56	57
71	4	58	59
72	4	58	67
73	5	59	60
74	4	59	61
75	5	61	62
76	4	61	63
77	5	63	64
78	4	63	65
79	5	65	66
80	4	65	67
81	6	67	68
82	4	68	69
83	4	68	77
84	5	69	70
85	4	69	71
86	5	71	72
87	4	71	73
88	5	73	74
89	4	73	75
90	5	75	76
91	4	75	77
92	5	78	79
93	4	78	80
94	5	80	81
95	8	82	83
96	4	82	87
97	10	83	84
98	10	83	85
99	10	83	86
100	5	87	88
101	5	89	90
102	4	89	91
103	5	91	92
104	11	94	95
105	6	94	96
106	4	96	97
107	4	96	106
108	5	97	98
109	4	97	99
110	5	99	100
111	4	99	101
112	5	101	102
113	4	101	103
114	6	103	104
115	4	103	106
116	11	104	105
117	6	104	202
118	5	106	107
119	1	108	109
120	2	108	201
121	4	109	110
122	4	109	199
123	5	110	111
124	4	110	112
125	5	112	113
126	4	112	114
127	6	114	115
128	4	114	197
129	4	115	116
130	4	115	195
131	5	116	117
132	4	116	118
133	5	118	119
134	4	118	120
135	7	120	121
136	4	120	190
137	7	121	122
138	4	122	123
139	4	122	188
140	5	123	124
141	4	123	125
142	5	125	126
143	4	125	127
144	8	127	128
145	4	127	186
146	8	128	129
147	8	128	166
148	8	128	185
149	4	129	130
150	4	129	164
151	5	130	131
152	4	130	132
153	5	132	133
154	4	132	134
155	7	134	135
156	4	134	162
157	7	135	136
158	4	136	137
159	4	136	157
160	5	137	138
161	4	137	139
162	5	139	140
163	4	139	141
164	6	141	142
165	4	141	155
166	4	142	143
167	4	142	153
168	5	143	144
169	4	143	145
170	5	145	146
171	4	145	147
172	1	147	148
173	4	147	151
174	2	148	149
175	2	148	150
176	5	151	152
177	4	151	153
178	5	153	154
179	5	155	156
180	4	155	157
181	8	157	158
182	10	158	159
183	10	158	160
184	10	158	161
185	5	162	163
186	4	162	164
187	5	164	165
188	4	166	167
189	4	166	175
190	5	167	168
191	4	167	169
192	5	169	170
193	4	169	171
194	5	171	172
195	4	171	173
196	5	173	174
197	4	173	175
198	6	175	176
199	4	176	177
200	4	176	185
201	5	177	178
202	4	177	179
203	5	179	180
204	4	179	181
205	5	181	182
206	4	181	183
207	5	183	184
208	4	183	185
209	5	186	187
210	4	186	188
211	5	188	189
212	8	190	191
213	4	190	195
214	10	191	192
215	10	191	193
216	10	191	194
217	5	195	196
218	5	197	198
219	4	197	199
220	5	199	200
221	11	202	203
222	6	202	204
223	4	204	205
224	4	204	216
225	5	205	206
226	4	205	207
227	5	207	208
228	4	207	209
229	5	209	210
230	4	209	211
231	6	211	212
232	4	211	216
233	11	212	213
234	12	212	214
235	13	214	215
236	5	216	217

Angles

1	1	11	13	14
2	1	97	96	106
3	4	39	38	40
4	4	126	125	127
5	1	115	114	197
6	1	36	35	45
7	3	147	148	150
8	1	38	40	41
9	1	202	204	205
10	6	84	83	86
11	1	96	106	103
12	4	26	25	27
13	1	28	27	54
14	1	14	15	16
15	4	90	89	91
16	1	28	29	49
17	6	157	158	160
18	4	33	32	34
19	6	190	191	193
20	1	129	164	162
21	1	204	205	207
22	4	109	199	200
23	1	29	30	32
24	1	7	89	91
25	1	141	142	153
26	5	134	135	136
27	1	128	129	164
28	1	108	109	110
29	6	82	83	85
30	1	112	114	115
31	4	96	106	107
32	4	43	45	46
33	6	20	21	58
34	4	151	153	154
35	4	122	123	124
36	1	8	9	11
37	4	198	197	199
38	1	176	185	183
39	1	21	20	78
40	5	27	28	29
41	1	116	118	120
42	1	15	16	18
43	6	49	50	51
44	4	29	30	31
45	1	14	15	80
46	4	36	38	39
47	1	125	127	128
48	6	52	50	53
49	6	129	128	166
50	1	191	190	195
51	1	166	175	176
52	1	14	13	82
53	1	128	185	176
54	4	208	207	209
55	1	101	103	104
56	1	2	3	5
57	1	5	7	8
58	6	127	128	185
59	4	168	167	169
60	4	184	183	185
61	4	187	186	188
62	1	68	77	75
63	1	175	176	185
64	6	157	158	161
65	1	18	20	21
66	4	152	151	153
67	1	109	199	197
68	4	146	145	147
69	4	129	130	131
70	1	116	115	195
71	1	25	27	28
72	1	211	212	214
73	1	105	104	202
74	1	67	68	77
75	1	205	207	209
76	4	167	169	170
77	6	129	128	185
78	4	19	18	20
79	1	13	82	87
80	1	68	69	71
81	4	156	155	157
82	1	123	125	127
83	1	125	127	186
84	1	112	114	197
85	6	190	191	192
86	2	40	41	94
87	4	89	91	92
88	1	143	142	153
89	1	30	29	49
90	1	35	34	47
91	4	76	75	77
92	4	7	89	90
93	3	93	1	108
94	4	124	123	125
95	1	120	190	191
96	1	34	35	36
97	4	115	116	117
98	6	85	83	86
99	4	62	61	63
100	4	178	177	179
101	1	94	96	106
102	1	145	147	151
103	1	141	142	143
104	4	15	16	17
105	1	148	147	151
106	4	61	63	64
107	4	54	56	57
108	1	127	186	188
109	1	122	188	186
110	1	41	40	43
111	6	192	191	194
112	4	2	3	4
113	1	167	169	171
114	1	22	23	25
115	1	129	130	132
116	4	109	110	111
117	6	193	191	194
118	4	72	71	73
119	1	8	7	89
120	1	137	139	141
121	1	103	104	105
122	4	117	116	118
123	4	131	130	132
124	1	181	183	185
125	4	123	125	126
126	1	204	216	211
127	6	22	21	77
128	4	190	195	196
129	1	130	132	134
130	1	58	67	65
131	4	130	132	133
132	1	32	34	47
133	4	136	137	138
134	4	99	101	102
135	4	44	43	45
136	1	16	15	80
137	1	167	166	175
138	4	103	106	107
139	1	40	43	45
140	1	114	197	199
141	1	2	91	89
142	1	28	29	30
143	6	127	128	166
144	1	69	71	73
145	1	205	204	216
146	1	179	181	183
147	1	96	97	99
148	1	29	49	47
149	1	173	175	176
150	1	32	34	35
151	4	34	47	48
152	7	21	58	59
153	1	9	8	87
154	4	12	11	13
155	4	207	209	210
156	4	20	78	79
157	4	68	69	70
158	1	130	129	164
159	4	133	132	134
160	1	21	22	56
161	6	127	128	129
162	4	27	54	55
163	1	59	58	67
164	1	123	122	188
165	4	129	164	165
166	4	40	43	44
167	4	127	186	187
168	1	16	18	20
169	1	13	82	83
170	4	141	155	156
171	3	147	148	149
172	4	78	80	81
173	4	79	78	80
174	1	58	59	61
175	6	49	50	53
176	1	166	175	173
177	6	159	158	160
178	1	145	147	148
179	1	110	109	199
180	1	97	99	101
181	2	2	1	108
182	1	83	82	87
183	4	162	164	165
184	1	23	22	56
185	1	136	137	139
186	1	176	177	179
187	1	118	120	190
188	4	143	145	146
189	1	18	20	78
190	6	84	83	85
191	4	181	183	184
192	1	73	75	77
193	4	122	188	189
194	6	160	158	161
195	1	101	103	106
196	1	35	45	43
197	6	51	50	53
198	4	8	9	10
199	1	95	94	96
200	1	114	115	195
201	1	177	176	185
202	4	204	205	206
203	1	132	134	135
204	4	63	65	66
205	4	111	110	112
206	4	114	197	198
207	4	180	179	181
208	6	82	83	84
209	1	41	94	96
210	1	61	63	65
211	4	140	139	141
212	6	58	21	77
213	4	96	97	98
214	1	27	54	56
215	6	157	158	159
216	4	169	171	172
217	6	190	191	194
218	1	110	112	114
219	1	141	155	157
220	1	209	211	216
221	1	25	27	54
222	1	155	157	158
223	4	116	118	119
224	6	159	158	161
225	4	35	36	37
226	4	48	47	49
227	1	139	141	155
228	1	30	32	34
229	4	2	91	92
230	4	142	143	144
231	1	21	77	68
232	4	197	199	200
233	1	35	36	38
234	4	134	162	163
235	1	143	145	147
236	4	24	23	25
237	1	136	157	158
238	4	16	18	19
239	1	114	115	116
240	1	47	49	50
241	3	40	41	42
242	4	177	179	180
243	1	171	173	175
244	4	64	63	65
245	1	34	47	49
246	4	176	177	178
247	1	23	25	27
248	4	147	151	152
249	1	142	153	151
250	1	212	211	216
251	7	128	185	183
252	1	132	134	162
253	4	138	137	139
254	4	170	169	171
255	1	211	212	213
256	4	205	207	208
257	1	21	58	67
258	4	98	97	99
259	5	120	121	122
260	1	58	67	68
261	1	139	141	142
262	1	29	49	50
263	1	34	35	45
264	1	38	40	43
265	4	66	65	67
266	1	7	8	87
267	6	20	21	22
268	1	202	204	216
269	6	20	21	77
270	4	82	87	88
271	1	8	87	82
272	1	135	136	137
273	1	41	94	95
274	1	142	143	145
275	1	15	80	78
276	4	206	205	207
277	1	135	136	157
278	4	58	59	60
279	4	15	80	81
280	3	1	108	201
281	4	59	61	62
282	4	182	181	183
283	4	110	112	113
284	1	135	134	162
285	1	118	120	121
286	1	175	176	177
287	6	22	21	58
288	1	65	67	68
289	1	147	151	153
290	3	2	1	93
291	3	149	148	150
292	1	22	56	54
293	1	1	2	91
294	1	7	8	9
295	1	121	120	190
296	1	69	68	77
297	1	134	162	164
298	4	119	118	120
299	1	9	11	13
300	2	1	108	109
301	1	36	38	40
302	1	115	116	118
303	4	166	167	168
304	6	192	191	193
305	3	42	41	94
306	4	22	23	24
307	4	204	216	217
308	1	136	157	155
309	4	142	153	154
310	4	30	32	33
311	4	23	25	26
312	4	71	73	74
313	1	121	122	123
314	4	144	143	145
315	4	73	75	76
316	1	104	202	204
317	1	137	136	157
318	4	69	71	72
319	1	3	2	91
320	4	4	3	5
321	1	3	5	7
322	1	121	122	188
323	1	11	13	82
324	1	21	22	23
325	4	8	87	88
326	4	6	5	7
327	1	108	109	199
328	1	142	141	155
329	1	115	195	190
330	4	10	9	11
331	1	203	202	204
332	1	59	61	63
333	1	109	110	112
334	3	109	108	201
335	1	128	166	175
336	4	17	16	18
337	4	163	162	164
338	4	22	56	57
339	1	209	211	212
340	5	212	214	215
341	4	171	173	174
342	4	70	69	71
343	4	211	216	217
344	4	100	99	101
345	7	21	77	75
346	1	103	104	202
347	4	210	209	211
348	8	213	212	214
349	6	49	50	52
350	4	74	73	75
351	4	179	181	182
352	4	174	173	175
353	1	166	167	169
354	4	35	45	46
355	1	63	65	67
356	1	104	103	106
357	4	137	139	140
358	1	99	101	103
359	4	60	59	61
360	1	128	127	186
361	4	113	112	114
362	6	51	50	52
363	6	82	83	86
364	5	13	14	15
365	4	9	11	12
366	1	128	129	130
367	6	166	128	185
368	4	115	195	196
369	1	122	123	125
370	1	177	179	181
371	4	37	36	38
372	1	71	73	75
373	1	1	2	3
374	4	102	101	103
375	1	94	96	97
376	4	97	99	100
377	1	104	202	203
378	1	207	209	211
379	1	20	78	80
380	4	3	5	6
381	1	67	68	69
382	7	128	166	167
383	4	31	30	32
384	4	55	54	56
385	1	5	7	89
386	1	169	171	173
387	1	120	190	195
388	4	186	188	189
389	4	172	171	173

Dihedrals

1	1	33	32	34	47
2	6	127	128	166	167
3	5	29	28	27	54
4	1	34	35	45	43
5	1	67	68	69	70
6	2	43	40	41	94
7	11	103	104	202	203
8	6	193	191	190	195
9	6	20	21	77	75
10	1	2	91	89	90
11	1	72	71	73	74
12	1	68	77	75	73
13	6	185	128	127	186
14	1	128	185	183	184
15	1	35	45	43	44
16	1	129	164	162	134
17	1	205	207	209	211
18	1	116	115	195	196
19	6	84	83	82	87
20	1	119	118	120	121
21	6	20	21	22	23
22	2	38	40	41	42
23	2	149	148	147	151
24	1	115	114	197	199
25	1	142	141	155	156
26	1	209	211	216	217
27	1	7	8	9	10
28	1	126	125	127	128
29	1	141	142	153	154
30	1	33	32	34	35
31	1	148	147	151	152
32	1	130	132	134	135
33	1	122	123	125	127
34	1	125	123	122	188
35	1	175	176	177	179
36	1	39	38	40	41
37	4	116	115	114	197
38	6	120	190	191	192
39	1	21	22	56	57
40	1	166	175	173	171
41	1	145	143	142	153
42	6	127	128	129	164
43	1	1	2	3	5
44	1	23	25	27	28
45	1	168	167	169	171
46	1	36	35	45	43
47	1	40	43	45	46
48	1	142	143	145	147
49	6	155	157	158	161
50	1	128	185	176	175
51	1	134	162	164	165
52	1	22	56	54	55
53	1	24	23	25	26
54	1	142	153	151	152
55	1	12	11	13	14
56	6	13	82	83	85
57	1	15	80	78	20
58	1	2	3	5	7
59	1	44	43	45	46
60	5	132	134	135	136
61	6	136	157	158	160
62	1	128	129	164	165
63	6	166	128	185	183
64	1	67	68	69	71
65	1	28	27	54	55
66	1	21	58	59	60
67	1	119	118	120	190
68	1	9	8	87	88
69	1	99	101	103	104
70	1	28	29	49	50
71	11	213	212	211	216
72	1	35	34	47	48
73	1	207	209	211	216
74	1	125	127	186	188
75	1	19	18	20	21
76	1	22	23	25	26
77	1	17	16	18	19
78	1	126	125	127	186
79	1	15	16	18	20
80	1	135	136	157	155
81	1	94	96	106	107
82	1	176	177	179	181
83	1	18	16	15	80
84	1	66	65	67	68
85	1	139	137	136	157
86	1	169	171	173	175
87	1	172	171	173	174
88	1	69	71	73	74
89	1	26	25	27	28
90	1	19	18	20	78
91	4	166	175	176	177
92	1	202	204	205	206
93	1	35	36	38	39
94	1	137	139	141	155
95	1	191	190	195	196
96	1	37	36	38	40
97	1	178	177	176	185
98	1	128	127	186	187
99	1	30	29	49	50
100	3	2	1	108	201
101	1	34	35	36	37
102	6	58	21	77	68
103	1	142	141	155	157
104	1	115	116	118	119
105	1	9	11	13	82
106	1	48	47	49	50
107	1	31	30	29	49
108	5	118	120	121	122
109	1	148	147	151	153
110	1	135	134	162	163
111	2	145	147	148	149
112	1	96	106	103	101
113	1	34	35	36	38
114	1	128	166	167	168
115	4	58	67	68	69
116	2	1	108	109	110
117	1	124	123	125	126
118	1	128	185	176	177
119	1	166	167	169	170
120	1	36	38	40	43
121	2	3	2	1	108
122	5	136	135	134	162
123	1	72	71	73	75
124	1	11	13	82	83
125	1	108	109	110	112
126	4	139	141	142	153
127	11	203	202	204	216
128	1	175	176	177	178
129	1	83	82	87	88
130	1	4	3	5	7
131	11	203	202	204	205
132	1	16	15	80	78
133	6	29	49	50	53
134	1	14	13	82	83
135	6	67	58	21	77
136	3	2	1	108	109
137	1	102	101	103	104
138	1	68	77	75	76
139	6	127	128	185	176
140	1	131	130	132	133
141	1	16	15	80	81
142	6	129	128	185	183
143	1	208	207	209	211
144	1	98	97	99	101
145	1	111	110	112	113
146	1	122	123	125	126
147	6	47	49	50	53
148	1	28	27	54	56
149	1	120	190	195	196
150	1	25	27	54	55
151	1	97	99	101	103
152	1	3	5	7	8
153	6	125	127	128	166
154	1	137	139	141	142
155	1	70	69	71	72
156	1	171	173	175	176
157	4	65	67	68	69
158	1	7	8	87	82
159	1	32	30	29	49
160	1	147	151	153	154
161	6	13	82	83	84
162	2	91	2	1	93
163	1	170	169	171	173
164	1	18	20	78	80
165	1	116	118	120	121
166	6	125	127	128	129
167	1	64	63	65	67
168	5	122	121	120	190
169	1	8	7	89	90
170	1	144	143	142	153
171	2	42	41	40	43
172	1	100	99	101	102
173	4	32	34	35	36
174	1	130	129	164	165
175	1	112	114	197	199
176	1	125	127	186	187
177	1	145	147	151	152
178	1	20	78	80	81
179	1	167	169	171	172
180	6	56	22	21	77
181	1	123	125	127	128
182	1	15	16	18	19
183	1	137	136	157	158
184	11	41	94	96	106
185	1	202	204	216	211
186	6	29	49	50	52
187	1	35	45	43	40
188	1	114	197	199	200
189	1	71	73	75	76
190	1	144	143	145	146
191	1	21	77	75	73
192	1	166	167	169	171
193	1	69	71	73	75
194	11	101	103	104	202
195	1	10	9	11	13
196	1	60	59	61	62
197	1	132	134	162	163
198	6	166	128	127	186
199	1	146	145	147	151
200	1	22	56	54	27
201	1	71	73	75	77
202	6	18	20	21	58
203	1	135	134	162	164
204	1	63	65	67	68
205	1	35	34	47	49
206	1	41	40	43	45
207	1	205	204	216	217
208	1	163	162	164	165
209	1	116	118	120	190
210	14	211	212	214	215
211	1	27	54	56	57
212	11	104	202	204	216
213	6	194	191	190	195
214	1	7	8	87	88
215	1	9	11	13	14
216	1	5	7	89	91
217	1	3	2	91	89
218	1	25	27	54	56
219	4	5	7	8	9
220	5	27	28	29	30
221	11	106	103	104	202
222	1	123	125	127	186
223	1	122	188	186	187
224	1	182	181	183	185
225	7	40	41	94	95
225	8	40	41	94	95
226	1	98	97	99	100
227	1	59	61	63	64
228	1	3	5	7	89
229	6	85	83	82	87
230	1	133	132	134	135
231	1	204	205	207	209
232	1	167	166	175	176
233	4	9	8	7	89
234	1	96	106	103	104
235	1	207	209	211	212
236	1	97	99	101	102
237	1	121	122	123	125
238	1	121	120	190	195
239	15	213	212	214	215
239	16	213	212	214	215
240	1	128	129	164	162
241	4	139	141	142	143
242	1	202	204	216	217
243	1	34	35	45	46
244	1	94	96	106	103
245	1	24	23	22	56
246	5	13	14	15	16
247	1	37	36	35	45
248	1	145	147	151	153
249	1	41	40	43	44
250	1	13	82	87	88
251	6	23	22	21	77
252	1	14	15	80	78
253	1	144	143	145	147
254	1	39	38	40	43
255	1	60	59	61	63
256	1	14	15	80	81
257	1	96	97	99	101
258	11	209	211	212	214
259	1	61	59	58	67
260	6	77	21	20	78
261	1	8	87	82	13
262	1	34	47	49	50
263	1	115	195	190	120
264	6	120	190	191	194
265	11	214	212	211	216
266	3	93	1	108	201
267	1	21	58	67	65
268	1	61	63	65	67
269	6	20	21	77	68
270	11	105	104	202	204
271	6	22	21	20	78
272	6	192	191	190	195
273	1	21	22	23	25
274	1	137	136	157	155
275	1	132	130	129	164
276	1	36	35	45	46
277	1	21	77	75	76
278	1	136	137	139	140
279	4	65	67	68	77
280	1	29	49	47	48
281	4	36	35	34	47
282	1	130	132	134	162
283	1	31	30	32	34
284	1	35	36	38	40
285	1	133	132	134	162
286	3	93	1	108	109
287	1	7	89	91	92
288	1	23	25	27	54
289	5	13	14	15	80
290	1	23	22	56	54
291	6	129	128	127	186
292	1	99	101	103	106
293	1	136	157	155	156
294	1	29	49	47	34
295	1	14	15	16	18
296	1	187	186	188	189
297	1	198	197	199	200
298	1	38	40	43	45
299	1	118	120	190	191
300	1	32	34	47	48
301	4	45	35	34	47
302	1	28	29	30	32
303	1	71	69	68	77
304	1	37	36	38	39
305	1	4	3	2	91
306	1	69	68	77	75
307	1	205	207	209	210
308	1	38	36	35	45
309	1	143	145	147	148
310	1	115	114	197	198
311	6	22	21	77	75
312	1	212	211	216	217
313	1	146	145	147	148
314	6	136	157	158	161
315	1	182	181	183	184
316	1	118	116	115	195
317	1	70	69	71	73
318	1	68	69	71	72
319	1	29	30	32	34
320	1	117	116	118	120
321	4	153	142	141	155
322	1	170	169	171	172
323	1	140	139	141	155
324	1	108	109	199	197
325	1	121	122	123	124
326	1	118	120	190	195
327	1	138	137	136	157
328	1	1	2	3	4
329	1	97	96	106	107
330	11	105	104	103	106
331	1	141	142	143	144
332	1	28	29	30	31
333	1	115	195	190	191
334	1	3	2	91	92
335	1	58	67	65	66
336	1	178	177	179	181
337	4	166	175	176	185
338	1	38	40	43	44
339	4	87	8	7	89
340	1	2	3	5	6
341	6	175	166	128	185
342	1	130	129	164	162
343	1	102	101	103	106
344	1	74	73	75	76
345	1	23	22	56	57
346	1	113	112	114	197
347	1	179	181	183	185
348	1	138	137	139	140
349	1	136	137	139	141
350	1	62	61	63	64
351	4	173	175	176	177
352	1	15	80	78	79
353	6	166	128	185	176
354	1	117	116	115	195
355	11	105	104	202	203
356	1	74	73	75	77
357	1	6	5	7	89
358	1	128	166	167	169
359	1	24	23	25	27
360	1	179	177	176	185
361	6	13	82	83	86
362	1	8	87	82	83
363	1	177	179	181	183
364	6	47	49	50	52
365	1	176	185	183	181
366	1	143	145	147	151
367	1	7	8	9	11
368	5	25	27	28	29
369	1	123	122	188	186
370	1	140	139	141	142
371	1	112	110	109	199
372	2	38	40	41	94
373	1	59	58	67	65
374	1	121	122	188	189
375	6	20	21	58	59
376	1	17	16	18	20
377	1	177	176	185	183
378	1	121	120	190	191
379	1	139	141	155	156
380	5	11	13	14	15
381	11	95	94	96	97
382	1	99	97	96	106
383	5	134	135	136	137
384	11	104	202	204	205
385	1	31	30	32	33
386	6	56	22	21	58
387	1	110	112	114	115
388	1	142	153	151	147
389	1	129	130	132	134
390	1	141	142	143	145
391	1	108	109	110	111
392	2	91	2	1	108
393	5	134	135	136	157
394	1	175	176	185	183
395	1	4	3	5	6
396	6	20	21	22	56
397	1	202	204	205	207
398	1	98	97	96	106
399	1	128	127	186	188
400	4	112	114	115	195
401	2	199	109	108	201
402	1	207	205	204	216
403	1	79	78	80	81
404	1	208	207	209	210
405	1	169	171	173	174
406	6	86	83	82	87
407	2	110	109	108	201
408	1	129	164	162	163
409	1	115	116	118	120
410	4	173	175	176	185
411	1	138	137	139	141
412	1	9	8	87	82
413	6	164	129	128	185
414	1	117	116	118	119
415	6	130	129	128	185
416	1	16	18	20	21
417	1	124	123	125	127
418	6	127	128	185	183
419	1	1	2	91	89
420	1	32	34	47	49
421	6	129	128	185	176
422	4	32	34	35	45
423	1	167	166	175	173
424	1	180	179	181	183
425	4	58	67	68	77
426	1	204	216	211	212
427	1	114	115	116	118
428	1	16	18	20	78
429	1	29	30	32	33
430	6	129	128	166	175
431	1	25	23	22	56
432	2	145	147	148	150
433	1	179	181	183	184
434	1	111	110	112	114
435	1	18	20	78	79
436	1	67	68	77	75
437	1	21	58	67	68
438	6	58	21	77	75
439	5	15	14	13	82
440	1	109	199	197	114
441	1	121	122	188	186
442	1	108	109	199	200
443	6	22	21	58	59
444	1	112	114	197	198
445	1	206	205	204	216
446	1	21	77	68	67
447	2	3	2	1	93
448	1	210	209	211	212
449	11	101	103	104	105