Title

11875 atoms
12250 bonds
20625 angles
31875 dihedrals
10500 impropers

9 atom types
13 bond types
6 angle types
26 dihedral types
2 improper types
-18.06868021 173.0620211 xlo xhi
-16.72083566 174.7154507 ylo yhi
-18.5229753 176.7803638 zlo zhi
0.0 0.0 0.0 xy xz yz

Masses

1	15.99943
2	12.01078
3	1.007947
4	12.01078
5	15.99943
6	1.007947
7	1.007947
8	15.99943
9	1.007947


Pair Coeffs

1	0.16846514	3.0251065
2	0.10884061	3.3795318
3	0.016409246	2.5832257
4	0.086879315	3.4806469
5	0.2102061	3.0398122
6	0.015611343	2.5725815
7	0.015779483	2.6445434
8	0.20947353	2.99716
9	1.2326e-05	0.53453923

Bond Coeffs

1 harmonic	366.7408841747	1.425895053732
2 harmonic	300.03137914615	1.451203938761
3 harmonic	264.62148576755	1.52190126495
4 harmonic	370.04670688625	1.093899492634
5 harmonic	301.15400723785	1.345741232799
6 harmonic	582.698766451	1.225198386222
7 harmonic	279.1350963404	1.454628925034
8 harmonic	360.7852444772	1.387193227181
9 harmonic	397.2545789619	1.085358495916
10 harmonic	425.69104206635	1.362945806494
11 harmonic	329.96998057905	1.427343958716
12 harmonic	543.5267831885	0.9716763312559
13 harmonic	385.7604595587	1.369745182308


Angle Coeffs

1 harmonic	53.20531626545	116.5475862634
2 harmonic	65.09061609600001	110.3538806181
3 harmonic	201.41175231035	127.4691416191
4 harmonic	57.8982893754	126.8062420451
5 harmonic	48.776492647595	115.6030999533
6 harmonic	34.066775159195	129.1835929926


Dihedral Coeffs

1 fourier 1	-0.0309670556842	3	0
2 fourier 1	0.4598191477945	2	0
3 fourier 1	0.1115525666802	3	0
4 fourier 1	0.3432490222662	1	0
5 fourier 1	0.0473758381877	3	0
6 fourier 1	0.457973137376	1	0
7 fourier 1	0.1918272375143	3	0
8 fourier 1	0.9202179876409	1	180
9 fourier 1	1.163809172478	2	180
10 fourier 1	0.1679186987369	1	180
11 fourier 1	2.779853741805	2	180
12 fourier 1	0.9974165607242	2	180
13 fourier 1	0.1911926717192	3	0
14 fourier 1	3.661930099076	2	180
15 fourier 1	1.532232714475	2	180
16 fourier 1	0.1155372516788	3	0
17 fourier 1	0.09223874044423	3	0
18 fourier 1	0.3159935921949	2	180
19 fourier 1	0.3247796806857	1	180
20 fourier 1	0.1040663847541	3	0
21 fourier 1	0.3445382149273	3	0
22 fourier 1	0.1364556373303	1	0
23 fourier 1	0.3026390167484	3	0
24 fourier 1	2.687457892086	2	180
25 fourier 1	2.772607909663	2	180
26 fourier 1	0.09692684957115	1	0


Improper Coeffs

1 3.5	-1	2
2 0.3666666666666667	-1	2


Atoms

1	4	1	-0.13947092	-3.295808	-14.294682	-5.0650317
2	4	2	0.051246222	-2.990475	-13.102139	-5.7346571
3	4	2	0.15634683	-1.8809942	-12.350063	-5.0003133
4	4	1	-0.5035479	-1.5291217	-11.19214	-5.7066059
5	4	3	0.08809973	-0.98674718	-13.002923	-4.9207553
6	4	3	0.08809973	-2.2115142	-12.089568	-3.9683522
7	4	3	0.095604923	-2.6468893	-13.350208	-6.7616311
8	4	3	0.095604923	-3.898683	-12.462124	-5.8206243
9	5	4	0.79096628	-2.2792608	-10.496321	-5.5288384
10	5	5	-0.5595268	-3.4666971	-10.792816	-5.8231846
11	5	4	-0.30104342	-1.9507546	-9.1847253	-4.9424468
12	5	4	0.022537301	-0.67876128	-8.8835734	-4.6352001
13	5	6	0.21817263	0.11851033	-9.5960133	-4.8124243
14	5	4	-0.361927	-0.34311258	-7.571656	-4.0456651
15	5	6	0.20260421	0.68889108	-7.3490929	-3.8025414
16	5	4	0.20956734	-1.3000519	-6.6643734	-3.8042806
17	5	1	-0.41395896	-0.92681881	-5.435956	-3.2391004
18	5	2	0.07553671	-1.8325686	-4.4290171	-2.7886148
19	5	2	-0.13983318	-2.5141062	-4.8295533	-1.4716029
20	5	2	-0.13983318	-1.5262423	-5.2399511	-0.36440848
21	5	2	0.075536695	-0.60587399	-4.1026721	0.089246432
22	5	1	-0.41395899	-1.379469	-2.9934508	0.53818713
23	5	4	0.20956728	-0.82922908	-1.7938874	1.0088895
24	5	4	-0.36588472	-1.6591251	-0.81293377	1.3911626
25	5	6	0.20260421	-2.7312426	-0.95622863	1.3341394
26	5	4	0.056893122	-1.1263684	0.46960784	1.8934078
27	5	6	0.20157968	-1.823138	1.2434714	2.1938696
28	5	4	-0.3709684	0.20006466	0.67033099	1.9723994
29	5	4	0.58180738	0.72459445	1.952254	2.4736776
30	5	5	-0.59009349	1.9654894	2.155859	2.5536325
31	5	4	0.056893155	1.1231715	-0.41322642	1.5504503
32	5	6	0.20157965	2.1949497	-0.27117575	1.6080539
33	5	4	-0.36588466	0.63965914	-1.5757802	1.0964433
34	5	6	0.20260428	1.3323778	-2.3508998	0.79608936
35	5	3	0.080869559	0.059448346	-3.7938803	-0.74473125
36	5	3	0.080869559	0.028029243	-4.4720375	0.92410804
37	5	7	0.099785615	-0.90688584	-6.0959119	-0.7086564
38	5	7	0.099785615	-2.1095182	-5.5906102	0.51393733
39	5	7	0.099785615	-3.196527	-5.6844454	-1.659774
40	5	7	0.099785615	-3.1456446	-3.9860562	-1.1181217
41	5	3	0.080869559	-2.5934816	-4.2129064	-3.567956
42	5	3	0.080869559	-1.2661288	-3.4866804	-2.6375903
43	5	4	-0.36192697	-2.7100049	-6.9928889	-4.1509147
44	5	6	0.20260421	-3.5047294	-6.2801015	-3.98524
45	5	4	0.022537299	-3.0144839	-8.1824951	-4.6857376
46	5	6	0.21817266	-4.0451555	-8.403342	-4.9330183
47	1	1	-0.13379569	-3.8381164	-14.043561	-4.2717562
48	1	2	0.023178228	-5.1523707	-14.448747	-4.5407153
49	1	2	0.095195104	-5.2879804	-15.961497	-4.3686841
50	1	8	-0.67870485	-6.617188	-16.357338	-4.5712197
51	1	9	0.3949163	-6.7714179	-16.341419	-5.5524988
52	1	3	0.093239311	-4.988	-16.240088	-3.3363243
53	1	3	0.093239311	-4.6130802	-16.490628	-5.0790895
54	1	3	0.096293699	-5.8339956	-13.937522	-3.8278293
55	1	3	0.096293699	-5.4467441	-14.150829	-5.5731618
56	2	4	0.58180732	0.044974716	2.7380821	2.778801
57	2	5	-0.59009361	-1.1429473	2.7141937	2.3586919
58	2	4	-0.37096846	0.52029149	3.8096886	3.6739967
59	2	4	0.056893174	-0.29265524	4.8022728	4.077328
60	2	6	0.20157968	-1.3252413	4.8439691	3.7559632
61	2	4	-0.36588472	0.21208986	5.8643157	4.9743968
62	2	6	0.20260421	-0.47947798	6.6362958	5.2721394
63	2	4	0.20956734	1.4945325	5.8514049	5.391559
64	2	1	-0.41395896	2.0420811	6.8287491	6.2423567
65	2	2	0.07553671	1.4217558	8.0463233	6.6634217
66	2	2	-0.13983318	1.7484705	9.2003387	5.7083363
67	2	2	-0.13983318	1.0470499	9.0665964	4.3499195
68	2	2	0.075536695	1.2981399	10.286583	3.4644736
69	2	1	-0.41395899	2.6851446	10.383058	3.1486483
70	2	4	0.20956728	3.2387562	11.392847	2.3513017
71	2	4	-0.361927	4.5600019	11.38304	2.1292959
72	2	6	0.20260421	5.1783135	10.607441	2.5614667
73	2	4	0.026466072	5.1906015	12.428021	1.2956125
74	2	6	0.21817266	6.2610684	12.386387	1.139599
75	2	4	-0.29020395	4.4453908	13.404596	0.74626097
76	2	4	0.82925988	5.0692125	14.45376	-0.089310936
77	2	5	-0.53479766	4.3590004	15.363085	-0.59868031
78	2	8	-0.6755101	6.442	14.448715	-0.32266464
79	2	9	0.40286202	6.8751998	15.163985	-0.89481166
80	2	4	0.026466035	2.9802758	13.41625	0.9914878
81	2	6	0.21817263	2.3603239	14.192377	0.55949071
82	2	4	-0.361927	2.4104795	12.470211	1.7471816
83	2	6	0.20260428	1.3414738	12.501254	1.9089131
84	2	3	0.080869559	0.96229687	11.208508	3.9883879
85	2	3	0.080869559	0.71347912	10.172954	2.525848
86	2	7	0.099785615	1.416317	8.16366	3.8190554
87	2	7	0.099785615	-0.04774534	8.9645706	4.5059423
88	2	7	0.099785615	2.8498186	9.2477817	5.5614673
89	2	7	0.099785615	1.4268331	10.15003	6.1898101
90	2	3	0.080869559	1.846939	8.3078672	7.6553133
91	2	3	0.080869559	0.32932278	7.9343542	6.8201858
92	2	4	-0.36588472	2.3811722	4.7539674	4.9495478
93	2	6	0.20260421	3.411558	4.7315922	5.2834768
94	2	4	0.056893114	1.9261854	3.7912933	4.1395191
95	2	6	0.20157965	2.5923979	2.9970014	3.8256428
96	4	1	-0.13947092	-14.340283	-5.9330265	36.978088
97	4	2	0.051246222	-13.756121	-4.8619697	36.288612
98	4	2	0.15634683	-12.338788	-5.2249028	35.846714
99	4	1	-0.5035479	-11.780306	-4.1796429	35.099065
100	4	3	0.08809973	-12.374825	-6.1352363	35.212499
101	4	3	0.08809973	-11.704599	-5.4479608	36.735586
102	4	3	0.095604923	-14.373204	-4.6386727	35.392168
103	4	3	0.095604923	-13.738676	-3.9510009	36.930237
104	5	4	0.79096628	-11.50598	-3.4427824	35.777488
105	5	5	-0.5595268	-12.384106	-2.9586134	36.538427
106	5	4	-0.30104342	-10.109565	-2.9758782	35.841361
107	5	4	0.022537301	-9.1850904	-3.5018637	35.02176
108	5	6	0.21817263	-9.450897	-4.2720949	34.307119
109	5	4	-0.361927	-7.7836354	-3.0396514	35.081947
110	5	6	0.20260421	-7.0524118	-3.4785411	34.413843
111	5	4	0.20956734	-7.4115143	-2.0935896	35.95582
112	5	1	-0.41395896	-6.0668411	-1.694508	35.973957
113	5	2	0.07553671	-5.4833846	-0.81366535	36.933613
114	5	2	-0.13983318	-5.2990102	-1.5018771	38.294427
115	5	2	-0.13983318	-4.5369831	-2.8371465	38.213486
116	5	2	0.075536695	-3.0892644	-2.6894955	37.735371
117	5	1	-0.41395899	-2.3789944	-1.7947907	38.587069
118	5	4	0.20956728	-1.0339594	-1.4450669	38.4086
119	5	4	-0.36588472	-0.4757904	-0.58007999	39.267305
120	5	6	0.20260421	-1.061715	-0.16727057	40.079402
121	5	4	0.056893122	0.93825769	-0.18054897	39.119535
122	5	6	0.20157968	1.3601969	0.52141557	39.829354
123	5	4	-0.3709684	1.6844786	-0.67918821	38.119302
124	5	4	0.58180738	3.0940658	-0.2758618	37.977422
125	5	5	-0.59009349	3.8067586	-0.7343728	37.04495
126	5	4	0.056893155	1.0708082	-1.6377071	37.165932
127	5	6	0.20157965	1.656047	-2.0515607	36.354497
128	5	4	-0.36588466	-0.21048545	-2.0002659	37.301119
129	5	6	0.20260428	-0.63495605	-2.7013529	36.59459
130	5	3	0.080869559	-3.068569	-2.3199938	36.688201
131	5	3	0.080869559	-2.603639	-3.6888151	37.763412
132	5	7	0.099785615	-5.0743783	-3.5388565	37.539997
133	5	7	0.099785615	-4.5270936	-3.2973775	39.224799
134	5	7	0.099785615	-6.2958192	-1.6996544	38.740748
135	5	7	0.099785615	-4.7702366	-0.80851063	38.98357
136	5	3	0.080869559	-6.0986027	0.10410946	37.044343
137	5	3	0.080869559	-4.4953063	-0.48136444	36.552906
138	5	4	-0.36192697	-8.4360006	-1.5035166	36.860412
139	5	6	0.20260421	-8.1754838	-0.72795099	37.565912
140	5	4	0.022537299	-9.7069922	-1.9224455	36.805778
141	5	6	0.21817266	-10.438826	-1.4806928	37.470217
142	1	1	-0.13379569	-13.938671	-5.9382751	37.886452
143	1	2	0.023178228	-14.93222	-5.4878046	38.766064
144	1	2	0.095195104	-15.954631	-6.5942303	39.024698
145	1	8	-0.67870485	-16.909911	-6.1662432	39.956777
146	1	9	0.3949163	-17.525363	-5.5554228	39.471941
147	1	3	0.093239311	-15.433112	-7.4850223	39.434423
148	1	3	0.093239311	-16.448323	-6.8910793	38.071652
149	1	3	0.096293699	-14.452537	-5.2019817	39.72647
150	1	3	0.096293699	-15.437833	-4.585765	38.351291
151	2	4	0.58180732	3.534324	0.42434611	38.676271
152	2	5	-0.59009361	2.7756945	1.1703205	39.351715
153	2	4	-0.37096846	5.0006866	0.48773952	38.822572
154	2	4	0.056893174	5.5862381	1.3419687	39.680596
155	2	6	0.20157968	4.9957958	2.0111143	40.292862
156	2	4	-0.36588472	7.0593701	1.3842758	39.805204
157	2	6	0.20260421	7.4806247	2.0840233	40.509312
158	2	4	0.20956734	7.8303369	0.57109441	39.05474
159	2	1	-0.41395896	9.2355056	0.55889934	39.119704
160	2	2	0.07553671	10.070702	1.4764695	39.830407
161	2	2	-0.13983318	10.473444	2.66466	38.94911
162	2	2	-0.13983318	9.3059752	3.6197495	38.666277
163	2	2	0.075536695	9.7630327	4.8513298	37.88542
164	2	1	-0.41395899	10.235587	4.4645026	36.597052
165	2	4	0.20956728	10.722964	5.3626535	35.639081
166	2	4	-0.361927	11.146723	4.8793306	34.463538
167	2	6	0.20260421	11.109701	3.8159024	34.267618
168	2	4	0.026466072	11.670547	5.7873634	33.421543
169	2	6	0.21817266	12.003839	5.3589615	32.484867
170	2	4	-0.29020395	11.728254	7.1141199	33.638826
171	2	4	0.82925988	12.251076	8.0292026	32.600868
172	2	5	-0.53479766	12.299153	9.2707968	32.817347
173	2	8	-0.6755101	12.693445	7.5321308	31.377653
174	2	9	0.40286202	13.051792	8.1537693	30.662265
175	2	4	0.026466035	11.258354	7.6511394	34.941761
176	2	6	0.21817263	11.295155	8.7155895	35.139062
177	2	4	-0.361927	10.785132	6.8280766	35.884819
178	2	6	0.20260428	10.448282	7.245207	36.824196
179	2	3	0.080869559	10.569293	5.3749373	38.444884
180	2	3	0.080869559	8.8992181	5.5413217	37.769259
181	2	7	0.099785615	8.523196	3.0983014	38.075669
182	2	7	0.099785615	8.8614119	3.957063	39.62644
183	2	7	0.099785615	10.887635	2.2806682	37.991099
184	2	7	0.099785615	11.280937	3.2245024	39.47037
185	2	3	0.080869559	11.001681	0.93476556	40.100349
186	2	3	0.080869559	9.6205686	1.8052525	40.789471
187	2	4	-0.36588472	7.1800338	-0.36999477	38.118081
188	2	6	0.20260421	7.7903219	-1.0312058	37.514714
189	2	4	0.056893114	5.8475806	-0.41116418	38.005058
190	2	6	0.20157965	5.3907034	-1.1066081	37.311604
191	4	1	-0.13947092	-1.5855956	4.227624	59.311053
192	4	2	0.051246222	-2.5005295	4.1279411	60.367814
193	4	2	0.15634683	-1.8701791	4.6332367	61.665181
194	4	1	-0.5035479	-2.8067705	4.5968781	62.706778
195	4	3	0.08809973	-1.5353709	5.6823085	61.525232
196	4	3	0.08809973	-0.97806871	4.0174614	61.924034
197	4	3	0.095604923	-3.389643	4.7489066	60.126684
198	4	3	0.095604923	-2.8396886	3.0733635	60.489008
199	5	4	0.79096628	-2.8900758	3.6031749	62.996759
200	5	5	-0.5595268	-3.2209457	2.744226	62.138105
201	5	4	-0.30104342	-2.6248903	3.213067	64.39302
202	5	4	0.022537301	-2.274035	4.1418527	65.297077
203	5	6	0.21817263	-2.1811071	5.184036	65.014518
204	5	4	-0.361927	-2.0051682	3.7572488	66.69748
205	5	6	0.20260421	-1.7209043	4.5213356	67.410951
206	5	4	0.20956734	-2.1023716	2.4782176	67.087084
207	5	1	-0.41395896	-1.831847	2.1672948	68.427937
208	5	2	0.07553671	-1.7479377	0.84764313	68.965268
209	5	2	-0.13983318	-0.45033543	0.1448333	68.53897
210	5	2	-0.13983318	0.82094176	0.96034079	68.83727
211	5	2	0.075536695	1.064021	1.1932947	70.331569
212	5	1	-0.41395899	1.1341844	-0.053132445	71.018494
213	5	4	0.20956728	1.3395084	-0.17627376	72.399057
214	5	4	-0.36588472	1.3722687	-1.4039159	72.936599
215	5	6	0.20260421	1.2427113	-2.2756177	72.30686
216	5	4	0.056893122	1.5850626	-1.5842972	74.386832
217	5	6	0.20157968	1.6054811	-2.5896057	74.791267
218	5	4	-0.3709684	1.7475243	-0.51754069	75.187825
219	5	4	0.58180738	1.9586927	-0.70470595	76.633548
220	5	5	-0.59009349	2.1124876	0.28527013	77.397723
221	5	4	0.056893155	1.7122975	0.84408836	74.597072
222	5	6	0.20157965	1.8426936	1.7159004	75.225678
223	5	4	-0.36588466	1.5205524	1.0068086	73.282464
224	5	6	0.20260428	1.5001366	2.0090604	72.875087
225	5	3	0.080869559	0.25255625	1.8207915	70.75736
226	5	3	0.080869559	2.0263099	1.7359377	70.45321
227	5	7	0.099785615	0.77122365	1.9414518	68.317917
228	5	7	0.099785615	1.6941991	0.41374451	68.420955
229	5	7	0.099785615	-0.48509311	-0.053641215	67.447482
230	5	7	0.099785615	-0.38983726	-0.84361926	69.043528
231	5	3	0.080869559	-2.6311057	0.24681377	68.661815
232	5	3	0.080869559	-1.7831076	0.91443519	70.0725
233	5	4	-0.36192697	-2.4984566	1.4476978	66.08849
234	5	6	0.20260421	-2.602316	0.41000311	66.370454
235	5	4	0.022537299	-2.7425106	1.7963882	64.818546
236	5	6	0.21817266	-3.0310698	1.0336058	64.106435
237	1	1	-0.13379569	-0.94259519	3.4787069	59.421143
238	1	2	0.023178228	-1.234611	2.5490225	58.414072
239	1	2	0.095195104	-0.69938964	3.0375361	57.068231
240	1	8	-0.67870485	-0.93144539	2.076943	56.074292
241	1	9	0.3949163	-1.8951704	2.1375761	55.840825
242	1	3	0.093239311	0.39520779	3.2064769	57.149983
243	1	3	0.093239311	-1.1784167	4.0043756	56.792731
244	1	3	0.096293699	-0.74935179	1.5833633	58.671357
245	1	3	0.096293699	-2.3336149	2.376816	58.351682
246	2	4	0.58180732	1.9823355	-1.7009623	77.057132
247	2	5	-0.59009361	1.4612997	-2.6502706	76.412495
248	2	4	-0.37096846	2.6206033	-1.9236014	78.36812
249	2	4	0.056893174	2.6724207	-3.1456228	78.92737
250	2	6	0.20157968	2.2458011	-4.0064468	78.429147
251	2	4	-0.36588472	3.3179654	-3.338656	80.243973
252	2	6	0.20260421	3.3367857	-4.3380173	80.648687
253	2	4	0.20956734	3.8552968	-2.2898129	80.899758
254	2	1	-0.41395896	4.4822671	-2.3995173	82.154246
255	2	2	0.07553671	4.5140092	-3.551247	83.001062
256	2	2	-0.13983318	3.3365359	-3.5565679	83.983004
257	2	2	-0.13983318	1.9913955	-3.8361817	83.299201
258	2	2	0.075536695	0.85632139	-3.9506185	84.316029
259	2	1	-0.41395899	0.67180952	-2.7043604	84.983585
260	2	4	0.20956728	-0.29386297	-2.4811101	85.973311
261	2	4	-0.361927	-0.36799401	-1.2669989	86.535015
262	2	6	0.20260421	0.30848014	-0.48183622	86.22431
263	2	4	0.026466072	-1.369565	-0.98337155	87.584338
264	2	6	0.21817266	-1.3981366	0.0096872893	88.014444
265	2	4	-0.29020395	-2.2228736	-1.9415589	87.990006
266	2	4	0.82925988	-3.2280242	-1.6652909	89.039495
267	2	5	-0.53479766	-4.0221924	-2.5723165	89.410079
268	2	8	-0.6755101	-3.3089367	-0.40544883	89.627097
269	2	9	0.40286202	-3.9957798	-0.20961977	90.345793
270	2	4	0.026466035	-2.1417847	-3.2880077	87.367645
271	2	6	0.21817263	-2.8183958	-4.0748761	87.678082
272	2	4	-0.361927	-1.2340221	-3.5440106	86.41835
273	2	6	0.20260428	-1.1971128	-4.5324607	85.980745
274	2	3	0.080869559	1.091463	-4.7472519	85.055829
275	2	3	0.080869559	-0.078107455	-4.2228909	83.778936
276	2	7	0.099785615	1.7482153	-3.0167424	82.59008
277	2	7	0.099785615	2.0539061	-4.7895529	82.733069
278	2	7	0.099785615	3.2973566	-2.5760974	84.506389
279	2	7	0.099785615	3.5252885	-4.343709	84.745869
280	2	3	0.080869559	5.4456121	-3.493432	83.602567
281	2	3	0.080869559	4.5800003	-4.4984602	82.427517
282	2	4	-0.36588472	3.8005196	-0.95024816	80.276509
283	2	6	0.20260421	4.2340921	-0.10218555	80.792754
284	2	4	0.056893114	3.2186249	-0.77368855	79.084819
285	2	6	0.20157965	3.1873229	0.21617099	78.646122
286	4	1	-0.13947092	0.91031185	-14.462691	116.79371
287	4	2	0.051246222	0.46675238	-13.259662	117.35918
288	4	2	0.15634683	-0.32492012	-12.450534	116.33234
289	4	1	-0.5035479	-0.82561689	-11.279962	116.91759
290	4	3	0.08809973	-1.1790263	-13.058229	115.96704
291	4	3	0.08809973	0.32084587	-12.201872	115.45873
292	4	3	0.095604923	-0.1893103	-13.495247	118.22425
293	4	3	0.095604923	1.3315453	-12.665514	117.73464
294	5	4	0.79096628	-0.026590151	-10.621086	116.99449
295	5	5	-0.5595268	0.99624819	-10.977001	117.63611
296	5	4	-0.30104342	-0.097167272	-9.2922305	116.36107
297	5	4	0.022537301	-1.196088	-8.9274438	115.6811
298	5	6	0.21817263	-2.0404569	-9.6005983	115.58876
299	5	4	-0.361927	-1.2724581	-7.5979011	115.04249
300	5	6	0.20260421	-2.1669393	-7.3237111	114.49623
301	5	4	0.20956734	-0.24773139	-6.7377034	115.12708
302	5	1	-0.41395896	-0.37113277	-5.4898214	114.49835
303	5	2	0.07553671	0.67436274	-4.5266082	114.37026
304	5	2	-0.13983318	1.7118898	-4.9541308	113.32136
305	5	2	-0.13983318	1.0986315	-5.3103245	111.95489
306	5	2	0.075536695	0.41694653	-4.1270607	111.26101
307	5	1	-0.41395899	1.341108	-3.0551943	111.09549
308	5	4	0.20956728	1.0190081	-1.8278562	110.50121
309	5	4	-0.36588472	1.9701366	-0.88717784	110.41398
310	5	6	0.20260421	2.9640291	-1.0833141	110.79729
311	5	4	0.056893122	1.6781859	0.42232202	109.79675
312	5	6	0.20157968	2.4681298	1.1623375	109.74202
313	5	4	-0.3709684	0.45221505	0.6884312	109.31495
314	5	4	0.58180738	0.16774863	1.996904	108.70118
315	5	5	-0.59009349	-0.97656605	2.261687	108.24499
316	5	4	0.056893155	-0.60438618	-0.35032159	109.40902
317	5	6	0.20157965	-1.5978329	-0.15544201	109.02524
318	5	4	-0.36588466	-0.33879346	-1.5373352	109.9675
319	5	6	0.20260428	-1.124914	-2.278804	110.02336
320	5	3	0.080869559	-0.45951723	-3.7897458	111.85393
321	5	3	0.080869559	0.057197512	-4.460942	110.26383
322	5	7	0.099785615	0.36489403	-6.1363476	112.07361
323	5	7	0.099785615	1.9090475	-5.6852143	111.29357
324	5	7	0.099785615	2.262775	-5.8424229	113.69473
325	5	7	0.099785615	2.4594939	-4.1411132	113.19739
326	5	3	0.080869559	1.1649902	-4.3517885	115.35097
327	5	3	0.080869559	0.22605638	-3.5568561	114.06983
328	5	4	-0.36192697	0.9687372	-7.1367898	115.88667
329	5	6	0.20260421	1.8071207	-6.463216	115.9892
330	5	4	0.022537299	1.0380263	-8.3423852	116.46602
331	5	6	0.21817266	1.9300311	-8.6148147	117.01585
332	1	1	-0.13379569	1.6827313	-14.234912	116.21239
333	1	2	0.023178228	2.8289405	-14.705509	116.867
334	1	2	0.095195104	2.9424664	-16.222291	116.71574
335	1	8	-0.67870485	4.1239021	-16.683985	117.31203
336	1	9	0.3949163	3.9667096	-16.68019	118.29296
337	1	3	0.093239311	2.9651857	-16.481031	115.63597
338	1	3	0.093239311	2.0572339	-16.720836	117.17177
339	1	3	0.096293699	3.720516	-14.225168	116.41035
340	1	3	0.096293699	2.8017465	-14.42719	117.9455
341	2	4	0.58180732	0.94339557	2.7497346	108.63694
342	2	5	-0.59009361	1.9400501	2.6654902	109.40362
343	2	4	-0.37096846	0.81830734	3.8475388	107.65979
344	2	4	0.056893174	1.7604001	4.8007644	107.54752
345	2	6	0.20157968	2.643151	4.7901221	108.17353
346	2	4	-0.36588472	1.6075141	5.8904731	106.55929
347	2	6	0.20260421	2.3915895	6.6288509	106.50549
348	2	4	0.20956734	0.51852017	5.9426008	105.76542
349	2	1	-0.41395896	0.30679445	6.9496077	104.80627
350	2	2	0.07553671	1.0816793	8.137108	104.62192
351	2	2	-0.13983318	0.52752528	9.3013951	105.4514
352	2	2	-0.13983318	0.76617571	9.1270523	106.95733
353	2	2	0.075536695	0.30842719	10.35383	107.74531
354	2	1	-0.41395899	-1.1022537	10.516982	107.61805
355	2	4	0.20956728	-1.8294823	11.549109	108.22449
356	2	4	-0.361927	-3.1534382	11.603306	108.02631
357	2	6	0.20260421	-3.6417113	10.861067	107.40881
358	2	4	0.026466072	-3.9634492	12.674203	108.64415
359	2	6	0.21817266	-5.0302407	12.684575	108.46024
360	2	4	-0.29020395	-3.3819051	13.610389	109.41628
361	2	4	0.82925988	-4.1858759	14.685121	110.0381
362	2	5	-0.53479766	-3.6282147	15.556045	110.76007
363	2	8	-0.6755101	-5.5620796	14.746557	109.83484
364	2	9	0.40286202	-6.1184714	15.479637	110.25869
365	2	4	0.026466035	-1.914045	13.551064	109.63697
366	2	6	0.21817263	-1.4241365	14.293751	110.25482
367	2	4	-0.361927	-1.1814758	12.581621	109.07638
368	2	6	0.20260428	-0.11477862	12.56077	109.25419
369	2	3	0.080869559	0.83166154	11.260513	107.36931
370	2	3	0.080869559	0.56732493	10.207252	108.81641
371	2	7	0.099785615	0.20990756	8.2409467	107.32996
372	2	7	0.099785615	1.8495567	8.9719991	107.14594
373	2	7	0.099785615	-0.56171448	9.4022969	105.25099
374	2	7	0.099785615	1.0253652	10.236315	105.1119
375	2	3	0.080869559	0.99745128	8.4238174	103.55247
376	2	3	0.080869559	2.1625961	7.9722433	104.8089
377	2	4	-0.36588472	-0.51030437	4.8880982	105.88959
378	2	6	0.20260421	-1.3861924	4.9179874	105.2527
379	2	4	0.056893114	-0.37316397	3.9004856	106.78162
380	2	6	0.20157965	-1.1391783	3.1385015	106.85816
381	4	1	-0.13947092	9.1765203	-12.277497	145.88751
382	4	2	0.051246222	8.4852485	-11.824015	147.019
383	4	2	0.15634683	7.104673	-11.301152	146.62346
384	4	1	-0.5035479	6.388159	-10.911011	147.76269
385	4	3	0.08809973	6.5414919	-12.10741	146.10867
386	4	3	0.08809973	7.2060556	-10.445195	145.91699
387	4	3	0.095604923	8.366527	-12.672951	147.72574
388	4	3	0.095604923	9.0668851	-11.025481	147.53465
389	5	4	0.79096628	6.778704	-9.9959172	148.06027
390	5	5	-0.5595268	8.0077661	-9.9140316	148.31961
391	5	4	-0.30104342	5.9015433	-8.8172499	148.17597
392	5	4	0.022537301	4.5922706	-8.9217112	147.89677
393	5	6	0.21817263	4.165294	-9.8675261	147.58413
394	5	4	-0.361927	3.7081711	-7.7439544	148.00901
395	5	6	0.20260421	2.6551716	-7.8485503	147.77678
396	5	4	0.20956734	4.1971927	-6.5540494	148.38603
397	5	1	-0.41395896	3.3143501	-5.4673449	148.47207
398	5	2	0.07553671	3.6974249	-4.1138224	148.71389
399	5	2	-0.13983318	4.3558735	-3.4829135	147.47783
400	5	2	-0.13983318	3.5146813	-3.6135272	146.19505
401	5	2	0.075536695	2.1793652	-2.8657011	146.25807
402	5	1	-0.41395899	2.4012467	-1.4857207	146.53518
403	5	4	0.20956728	1.3772245	-0.53805474	146.66396
404	5	4	-0.36588472	1.7078157	0.73124964	146.94092
405	5	6	0.20260421	2.7484465	1.0074188	147.05941
406	5	4	0.056893122	0.66373277	1.7654615	147.08683
407	5	6	0.20157968	0.96302438	2.7825295	147.31184
408	5	4	-0.3709684	-0.63387284	1.446076	146.94482
409	5	4	0.58180738	-1.6701127	2.4825048	147.09234
410	5	5	-0.59009349	-2.8909115	2.1989518	146.96227
411	5	4	0.056893155	-1.0049172	0.041683714	146.63778
412	5	6	0.20157965	-2.0447968	-0.23501105	146.51822
413	5	4	-0.36588466	-0.058084744	-0.89490108	146.50454
414	5	6	0.20260428	-0.35318974	-1.9113081	146.27934
415	5	3	0.080869559	1.527159	-3.31345	147.0376
416	5	3	0.080869559	1.6702104	-2.9671472	145.27535
417	5	7	0.099785615	3.3228265	-4.6859781	145.97638
418	5	7	0.099785615	4.1045684	-3.2069513	145.3457
419	5	7	0.099785615	5.3367611	-3.9704736	147.29869
420	5	7	0.099785615	4.5629476	-2.4105761	147.68396
421	5	3	0.080869559	4.3783498	-4.0522874	149.58889
422	5	3	0.080869559	2.7909814	-3.5333001	148.9841
423	5	4	-0.36192697	5.6469229	-6.4372984	148.70335
424	5	6	0.20260421	6.0725156	-5.4981148	149.0257
425	5	4	0.022537299	6.4487328	-7.5053325	148.60182
426	5	6	0.21817266	7.5002212	-7.4020641	148.83827
427	1	1	-0.13379569	9.4971667	-11.468869	145.40818
428	1	2	0.023178228	10.88288	-11.408219	145.60793
429	1	2	0.095195104	11.593369	-12.427662	144.7178
430	1	8	-0.67870485	12.982798	-12.320058	144.86751
431	1	9	0.3949163	13.208819	-12.750365	145.73394
432	1	3	0.093239311	11.334268	-12.229084	143.65629
433	1	3	0.093239311	11.254792	-13.458414	144.96892
434	1	3	0.096293699	11.234496	-10.387323	145.34657
435	1	3	0.096293699	11.129171	-11.594192	146.6785
436	2	4	0.58180732	-1.3916719	3.5044913	147.31711
437	2	5	-0.59009361	-0.25905394	3.7312378	147.82108
438	2	4	-0.37096846	-2.3359886	4.6003234	147.02891
439	2	4	0.056893174	-2.0274634	5.8827601	147.29149
440	2	6	0.20157968	-1.0719316	6.1501765	147.72358
441	2	4	-0.36588472	-2.9949944	6.9608195	146.99298
442	2	6	0.20260421	-2.6994444	7.9730367	147.21868
443	2	4	0.20956734	-4.1989136	6.6677376	146.46051
444	2	1	-0.41395896	-5.1674252	7.6405868	146.15323
445	2	2	0.07553671	-5.1259621	9.030025	146.48839
446	2	2	-0.13983318	-5.7947295	9.2995743	147.84145
447	2	2	-0.13983318	-4.9745887	8.7734022	149.02706
448	2	2	0.075536695	-5.6071493	9.1584739	150.36386
449	2	1	-0.41395899	-6.8816048	8.5336087	150.49855
450	2	4	0.20956728	-7.7146515	8.6854182	151.6143
451	2	4	-0.361927	-8.8955179	8.0525424	151.6241
452	2	6	0.20260421	-9.1909554	7.4395145	150.78294
453	2	4	0.026466072	-9.8094389	8.1829219	152.7784
454	2	6	0.21817266	-10.754974	7.6565449	152.74902
455	2	4	-0.29020395	-9.4673624	8.9392356	153.83755
456	2	4	0.82925988	-10.37659	9.0744809	154.99647
457	2	5	-0.53479766	-10.043381	9.7861346	155.98301
458	2	8	-0.6755101	-11.60532	8.4194853	155.01153
459	2	9	0.40286202	-12.232171	8.5073505	155.80271
460	2	4	0.026466035	-8.1581341	9.6411343	153.8279
461	2	6	0.21817263	-7.8614266	10.255292	154.66939
462	2	4	-0.361927	-7.3318345	9.5231594	152.78193
463	2	6	0.20260428	-6.3839461	10.043776	152.80091
464	2	3	0.080869559	-5.7170386	10.26366	150.42477
465	2	3	0.080869559	-4.9407609	8.817365	151.18564
466	2	7	0.099785615	-4.902113	7.6662745	148.97722
467	2	7	0.099785615	-3.9496093	9.1990444	148.98738
468	2	7	0.099785615	-6.8047916	8.8342239	147.84499
469	2	7	0.099785615	-5.9246816	10.398828	147.95069
470	2	3	0.080869559	-5.7107607	9.5735884	145.71665
471	2	3	0.080869559	-4.0992449	9.4475068	146.44275
472	2	4	-0.36588472	-4.5292804	5.2565572	146.16844
473	2	6	0.20260421	-5.4916773	5.0112397	145.73565
474	2	4	0.056893114	-3.654876	4.2799746	146.43603
475	2	6	0.20157965	-3.9168938	3.2522107	146.21625
476	4	1	-0.13947092	-5.2683159	34.881985	-14.431567
477	4	2	0.051246222	-4.9268588	33.991637	-13.404692
478	4	2	0.15634683	-5.4048182	34.528425	-12.0559
479	4	1	-0.5035479	-5.1235337	33.606568	-11.038794
480	4	3	0.08809973	-6.5022834	34.690644	-12.09449
481	4	3	0.08809973	-4.9183539	35.507111	-11.837791
482	4	3	0.095604923	-5.417272	33.015018	-13.604632
483	4	3	0.095604923	-3.825013	33.826068	-13.385354
484	5	4	0.79096628	-4.1068726	33.6832	-10.841303
485	5	5	-0.5595268	-3.288809	33.497466	-11.779828
486	5	4	-0.30104342	-3.6373263	34.003231	-9.4814645
487	5	4	0.022537301	-4.523044	34.197318	-8.4910634
488	5	6	0.21817263	-5.5882082	34.122365	-8.6766116
489	5	4	-0.361927	-4.0591144	34.520085	-7.1265377
490	5	6	0.20260421	-4.7898573	34.675533	-6.3419831
491	5	4	0.20956734	-2.7506292	34.628561	-6.8558709
492	5	1	-0.41395896	-2.3648629	34.941305	-5.5439577
493	5	2	0.07553671	-1.0318021	35.234599	-5.1266169
494	5	2	-0.13983318	-0.58766089	36.629665	-5.5913448
495	5	2	-0.13983318	-1.5648945	37.752328	-5.1978696
496	5	2	0.075536695	-1.6951663	37.950051	-3.6845226
497	5	1	-0.41395899	-0.41810865	38.21753	-3.1118555
498	5	4	0.20956728	-0.2028277	38.435604	-1.7446047
499	5	4	-0.36588472	1.0479957	38.66362	-1.3196585
500	5	6	0.20260421	1.8674896	38.677903	-2.0277875
501	5	4	0.056893122	1.3247532	38.898049	0.11192853
502	5	6	0.20157968	2.3467781	39.078559	0.42419686
503	5	4	-0.3709684	0.32405397	38.884338	1.0087936
504	5	4	0.58180738	0.60732385	39.118268	2.4352483
505	5	5	-0.59009349	-0.3199158	39.108465	3.2883594
506	5	4	0.056893155	-1.0629614	38.632513	0.5429219
507	5	6	0.20157965	-1.8828019	38.619044	1.2499474
508	5	4	-0.36588466	-1.3132419	38.421269	-0.75483517
509	5	6	0.20260428	-2.3325338	38.241263	-1.0703093
510	5	3	0.080869559	-2.1430253	37.046905	-3.2183939
511	5	3	0.080869559	-2.3710942	38.81218	-3.4971396
512	5	7	0.099785615	-2.5690313	37.547156	-5.6272778
513	5	7	0.099785615	-1.2055515	38.703424	-5.6461479
514	5	7	0.099785615	-0.48749569	36.630732	-6.6967464
515	5	7	0.099785615	0.42060704	36.846705	-5.1771388
516	5	3	0.080869559	-0.32806436	34.460493	-5.498877
517	5	3	0.080869559	-0.98991904	35.185637	-4.0186866
518	5	4	-0.36192697	-1.7663954	34.406489	-7.9504088
519	5	6	0.20260421	-0.70395042	34.469934	-7.7652429
520	5	4	0.022537299	-2.1869857	34.113574	-9.1878297
521	5	6	0.21817266	-1.4567132	33.953672	-9.9709891
522	1	1	-0.13379569	-4.6248741	35.636682	-14.378079
523	1	2	0.023178228	-3.7571581	35.50114	-15.470085
524	1	2	0.095195104	-4.4466988	35.955116	-16.756488
525	1	8	-0.67870485	-3.5569783	35.883681	-17.837136
526	1	9	0.3949163	-3.4840411	34.923491	-18.081398
527	1	3	0.093239311	-4.7801511	37.008044	-16.640213
528	1	3	0.093239311	-5.3457548	35.327743	-16.95206
529	1	3	0.096293699	-2.8619347	36.134531	-15.292432
530	1	3	0.096293699	-3.4180098	34.444326	-15.567454
531	2	4	0.58180732	1.621699	39.300444	2.7674592
532	2	5	-0.59009361	2.5786614	38.940868	2.0304725
533	2	4	-0.37096846	1.8591761	39.962045	4.0641977
534	2	4	0.056893174	3.1034275	40.207898	4.5116089
535	2	6	0.20157968	3.9718101	39.926818	3.9300988
536	2	4	-0.36588472	3.3111606	40.871903	5.8167445
537	2	6	0.20260421	4.3276213	41.049877	6.129798
538	2	4	0.20956734	2.2547924	41.231523	6.5741148
539	2	1	-0.41395896	2.3778775	41.863994	7.824594
540	2	2	0.07553671	3.5827186	42.077819	8.5643389
541	2	2	-0.13983318	3.866504	40.913414	9.5205334
542	2	2	-0.13983318	4.2933593	39.632907	8.7902792
543	2	2	0.075536695	4.6808236	38.527783	9.7721144
544	2	1	-0.41395899	3.5468721	38.143176	10.546108
545	2	4	0.20956728	3.5728743	37.151039	11.534496
546	2	4	-0.361927	2.4431351	36.880881	12.202161