Title

193 atoms
206 bonds
341 angles
503 dihedrals
276 impropers

11 atom types
15 bond types
8 angle types
18 dihedral types
3 improper types
-14.54599953 85.45400047 xlo xhi
-3.619999886 96.38000011 ylo yhi
-13.64599991 86.35400009 zlo zhi
0.0 0.0 0.0 xy xz yz

Masses

1	14.00672
2	12.01078
3	1.007947
4	15.99943
5	12.01078
6	1.007947
7	18.998403
8	1.007947
9	15.99943
10	15.99943
11	1.007947


Pair Coeffs

1	0.16769152	3.206876
2	0.086879315	3.4806469
3	0.015611343	2.5725815
4	0.16846514	3.0251065
5	0.10884061	3.3795318
6	0.014090815	1.1034277
7	0.061	3.1181455
8	0.015779483	2.6445434
9	0.2102061	3.0398122
10	0.20947353	2.99716
11	1.2326e-05	0.53453923

Bond Coeffs

1 harmonic	390.03554688505	1.390160554689
2 harmonic	505.144496193	1.019481865027
3 harmonic	422.7150220147	1.421786517481
4 harmonic	360.7852444772	1.387193227181
5 harmonic	397.2545789619	1.085358495916
6 harmonic	279.1350963404	1.454628925034
7 harmonic	425.69104206635	1.362945806494
8 harmonic	289.73813263395	1.498646816465
9 harmonic	264.62148576755	1.52190126495
10 harmonic	492.76746816345	1.381897776683
11 harmonic	340.45121009905	1.358690858053
12 harmonic	370.04670688625	1.093899492634
13 harmonic	582.698766451	1.225198386222
14 harmonic	385.7604595587	1.369745182308
15 harmonic	543.5267831885	0.9716763312559


Angle Coeffs

1 harmonic	57.8982893754	126.8062420451
2 harmonic	55.42182150775	117.3465570514
3 harmonic	63.44422595415	115.5071327674
4 harmonic	34.066775159195	129.1835929926
5 harmonic	65.09061609600001	110.3538806181
6 harmonic	53.20531626545	116.5475862634
7 harmonic	48.776492647595	115.6030999533
8 harmonic	201.41175231035	127.4691416191


Dihedral Coeffs

1 fourier 1	3.661930099076	2	180
2 fourier 1	1.193093382682	2	180
3 fourier 1	0.02021088501612	1	0
4 fourier 1	1.163235555439	2	180
5 fourier 1	1.532232714475	2	180
6 fourier 1	0.02664938770063	3	0
7 fourier 1	0.1155372516788	3	0
8 fourier 1	3.101948770557	2	180
9 fourier 1	-0.4252153282372	1	0
10 fourier 1	1.809047390003	2	180
11 fourier 1	-0.04816277792592	1	0
12 fourier 1	0.9974165607242	2	180
13 fourier 1	2.348375642009	2	180
14 fourier 1	1.256156174911	1	0
15 fourier 1	0.1040663847541	3	0
16 fourier 1	2.687457892086	2	180
17 fourier 1	2.772607909663	2	180
18 fourier 1	0.09692684957115	1	0


Improper Coeffs

1 0.3666666666666667	-1	2
2 0.3333333333333333	-1	2
3 3.5	-1	2


Atoms

1	1	1	-0.41178301	-13.349	3.263	1.046
2	1	2	0.126978	-12.171	2.46	0.949
3	1	2	-0.40637699	-11.284	2.6659999	-0.035999998
4	1	3	0.22183	-11.449	3.4430001	-0.76999998
5	1	2	-0.113702	-10.063	1.84	-0.125
6	1	3	0.204087	-9.3520002	2.053	-0.91399997
7	1	2	-0.12774099	-9.8260002	0.86900002	0.77899998
8	1	2	-0.133984	-8.5900002	0.048	0.70099998
9	1	2	-0.128776	-7.927	-0.30199999	1.817
10	1	3	0.207371	-8.2709999	0.015	2.793
11	1	2	-0.295522	-6.6700001	-1.067	1.73
12	1	3	0.224545	-6.118	-1.283	2.6359999
13	1	2	0.329642	-6.171	-1.424	0.54100001
14	1	4	-0.271494	-4.9200001	-2.052	0.498
15	1	2	0.25878301	-3.776	-1.483	-0.082000002
16	1	2	-0.276932	-3.6960001	-0.17399999	-0.38
17	1	3	0.22877499	-4.5229998	0.495	-0.18099999
18	1	2	-0.14229199	-2.47	0.38299999	-0.98500001
19	1	3	0.216277	-2.4760001	1.438	-1.2130001
20	1	2	-0.258405	-1.398	-0.40400001	-1.234
21	1	5	0.0087829996	-0.090999998	0.116	-1.865
22	1	2	-0.258405	1.115	-0.25799999	-0.98400003
23	1	2	-0.14229199	1.027	-0.197	0.36500001
24	1	3	0.216277	0.098999999	0.068000004	0.85299999
25	1	2	-0.276932	2.197	-0.47799999	1.22
26	1	3	0.22877499	2.082	-0.45899999	2.2969999
27	1	2	0.25878301	3.3929999	-0.72000003	0.67500001
28	1	4	-0.271494	4.487	-0.96899998	1.516
29	1	2	0.329642	5.823	-0.66399997	1.211
30	1	2	-0.295522	6.1420002	0.449	0.52499998
31	1	3	0.224545	5.3720002	1.128	0.185
32	1	2	-0.128776	7.5500002	0.78899997	0.25999999
33	1	3	0.207371	7.7680001	1.683	-0.31099999
34	1	2	-0.133984	8.5380001	-0.001	0.71100003
35	1	2	-0.12774099	9.9580002	0.35100001	0.46399999
36	1	2	-0.12774099	10.853	-0.59600002	0.125
37	1	3	0.204087	10.551	-1.628	0.001
38	1	2	-0.374421	12.269	-0.241	-0.108
39	1	3	0.21827801	12.971	-1.02	-0.38
40	1	2	0.199218	12.678	1.031	0.02
41	1	1	-0.53200501	14.048	1.3789999	-0.198
42	1	6	0.31964901	14.749	0.65700001	-0.477
43	1	2	-0.374421	11.7	2.0769999	0.39399999
44	1	3	0.21827801	12.023	3.105	0.50400001
45	1	2	-0.12774099	10.417	1.7589999	0.60000002
46	1	3	0.204087	9.7189999	2.5350001	0.88700002
47	1	2	-0.056134	8.191	-1.225	1.479
48	1	3	0.206402	8.9919996	-1.834	1.874
49	1	2	-0.32167301	6.9050002	-1.556	1.711
50	1	5	0.76683998	6.546	-2.779	2.523
51	1	7	-0.207357	7.631	-3.6199999	2.7
52	1	7	-0.207357	6.086	-2.382	3.7639999
53	1	7	-0.207357	5.5500002	-3.4909999	1.8789999
54	1	2	-0.276932	3.5220001	-0.75400001	-0.801
55	1	3	0.22877499	4.4790001	-0.96700001	-1.26
56	1	2	-0.14229199	2.4560001	-0.53500003	-1.58
57	1	3	0.216277	2.598	-0.55800003	-2.651
58	1	5	-0.12988099	0.0040000002	-0.51899999	-3.273
59	1	8	0.089360997	0.22	-1.6059999	-3.2060001
60	1	8	0.089360997	-0.95300001	-0.391	-3.823
61	1	8	0.089360997	0.79400003	-0.039000001	-3.8889999
62	1	5	-0.12988099	-0.059	1.654	-2.0350001
63	1	8	0.089360997	-0.847	1.995	-2.74
64	1	8	0.089360997	-0.198	2.1619999	-1.056
65	1	8	0.089360997	0.92000002	1.979	-2.45
66	1	2	-0.14229199	-1.501	-1.853	-0.89499998
67	1	3	0.216277	-0.66399997	-2.5139999	-1.081
68	1	2	-0.276932	-2.6159999	-2.3540001	-0.35100001
69	1	3	0.22877499	-2.6689999	-3.408	-0.109
70	1	2	-0.32167301	-6.9450002	-1.1390001	-0.70599997
71	1	5	0.76683998	-6.467	-1.625	-2.0580001
72	1	7	-0.207357	-7.5419998	-1.8940001	-2.8889999
73	1	7	-0.207357	-5.7309999	-2.789	-1.934
74	1	7	-0.207357	-5.6820002	-0.65100002	-2.6459999
75	1	2	-0.056134	-8.0699997	-0.403	-0.61699998
76	1	3	0.206402	-8.6289997	-0.15899999	-1.513
77	1	2	-0.113702	-10.819	0.63800001	1.8609999
78	1	3	0.204087	-10.667	-0.155	2.5829999
79	1	2	-0.40637699	-11.923	1.391	1.941
80	1	3	0.22183	-12.642	1.2079999	2.7290001
81	1	6	0.37299401	-14.026	3.1199999	1.829
82	1	2	0.76778501	14.373	2.3840001	-0.082000002
83	1	9	-0.65774	15.607	2.635	-0.131
84	1	2	-0.35405701	13.381	3.454	0.133
85	1	2	-0.074716002	13.754	4.7389998	0.285
86	1	3	0.222968	14.798	5.026	0.25400001
87	1	2	-0.243387	12.737	5.7870002	0.498
88	1	3	0.213259	13.046	6.8179998	0.62
89	1	2	-0.022552	11.439	5.4679999	0.542
90	1	3	0.22249299	10.705	6.2490001	0.69999999
91	1	2	-0.29308099	11.01	4.0560002	0.37599999
92	1	2	0.58779103	9.5819998	3.6949999	0.42300001
93	1	9	-0.52578098	8.6990004	4.5749998	0.60399997
94	1	2	0.05638	11.94	3.1040001	0.182
95	1	3	0.240091	11.643	2.069	0.059
96	1	1	-0.41178301	-13.554	4.0089998	0.345
97	1	2	0.126978	-12.51	4.8119998	-0.20900001
98	1	2	-0.40637699	-11.232	4.6059999	0.14300001
99	1	3	0.22183	-10.975	3.8280001	0.85000002
100	1	2	-0.113702	-10.156	5.4320002	-0.44100001
101	1	3	0.204087	-9.132	5.2189999	-0.15899999
102	1	2	-0.12774099	-10.443	6.402	-1.33
103	1	2	-0.133984	-9.3599997	7.224	-1.931
104	1	2	-0.128776	-9.4029999	7.5739999	-3.2279999
105	1	3	0.207371	-10.219	7.257	-3.865
106	1	2	-0.295522	-8.2980003	8.3389997	-3.8329999
107	1	3	0.224545	-8.3219995	8.5539999	-4.8930001
108	1	2	0.329642	-7.2360001	8.6960001	-3.0999999
109	1	4	-0.271494	-6.1599998	9.3240004	-3.7379999
110	1	2	0.25878301	-4.8829999	8.7550001	-3.8670001
111	1	2	-0.276932	-4.6550002	7.4460001	-3.658
112	1	3	0.22877499	-5.4590001	6.777	-3.3800001
113	1	2	-0.14229199	-3.2969999	6.8889999	-3.8099999
114	1	3	0.216277	-3.1789999	5.8330002	-3.615
115	1	2	-0.258405	-2.26	7.6760001	-4.1789999
116	1	5	0.0087829996	-0.81800002	7.1550002	-4.3520002
117	1	2	-0.258405	-0.278	7.5300002	-5.744
118	1	2	-0.14229199	-1.079	7.4689999	-6.8319998
119	1	3	0.216277	-2.1240001	7.204	-6.743
120	1	2	-0.276932	-0.55500001	7.75	-8.1829996
121	1	3	0.22877499	-1.232	7.7309999	-9.0290003
122	1	2	0.25878301	0.74599999	7.9910002	-8.3690004
123	1	4	-0.271494	1.214	8.2410002	-9.6669998
124	1	2	0.329642	2.5039999	7.9359999	-10.13
125	1	2	-0.295522	3.142	6.823	-9.7250004
126	1	3	0.224545	2.677	6.1440001	-9.0229998
127	1	2	-0.128776	4.4710002	6.4829998	-10.261
128	1	3	0.207371	4.9619999	5.5890002	-9.8970003
129	1	2	-0.133984	5.0599999	7.2729998	-11.173
130	1	2	-0.12774099	6.3899999	6.921	-11.731
131	1	2	-0.077032	7.3260002	7.868	-11.928
132	1	3	0.204087	7.138	8.8999996	-11.661
133	1	2	-0.45053801	8.6440001	7.513	-12.495
134	1	3	0.230368	9.3809996	8.2919998	-12.644
135	1	2	0.31876099	8.9189997	6.2410002	-12.823
136	1	1	-0.84454298	10.191	5.8930001	-13.378
137	1	6	0.36666799	10.398	4.9060001	-13.646
138	1	6	0.36666799	10.932	6.6149998	-13.521
139	1	2	-0.45053801	7.895	5.1950002	-12.611
140	1	3	0.230369	8.1070004	4.1659999	-12.877
141	1	2	-0.077032	6.7030001	5.513	-12.093
142	1	3	0.204087	5.96	4.737	-11.958
143	1	2	-0.056134	4.3530002	8.4960003	-11.633
144	1	3	0.206402	4.816	9.1059999	-12.397
145	1	2	-0.32167301	3.1459999	8.8280001	-11.135
146	1	5	0.76683998	2.405	10.051	-11.625
147	1	7	-0.207357	3.224	10.892	-12.359
148	1	7	-0.207357	1.349	9.6540003	-12.423
149	1	7	-0.207357	1.914	10.763	-10.546
150	1	2	-0.276932	1.651	8.026	-7.1950002
151	1	3	0.22877499	2.704	8.2390003	-7.3249998
152	1	2	-0.14229199	1.173	7.8070002	-5.9640002
153	1	3	0.216277	1.87	7.8299999	-5.1389999
154	1	5	-0.12988099	0.021	7.7909999	-3.217
155	1	8	0.089360997	0.16599999	8.8780003	-3.3900001
156	1	8	0.089360997	-0.49000001	7.6630001	-2.237
157	1	8	0.089360997	1.018	7.3109999	-3.1240001
158	1	5	-0.12988099	-0.69999999	5.618	-4.2249999
159	1	8	0.089360997	-0.98400003	5.277	-3.207
160	1	8	0.089360997	-1.345	5.1100001	-4.9749999
161	1	8	0.089360997	0.34900001	5.2930002	-4.4039998
162	1	2	-0.14229199	-2.529	9.125	-4.408
163	1	3	0.216277	-1.724	9.7860003	-4.7030001
164	1	2	-0.276932	-3.7609999	9.6260004	-4.2649999
165	1	3	0.22877499	-3.937	10.68	-4.441
166	1	2	-0.32167301	-7.2160001	8.4110003	-1.632
167	1	5	0.76683998	-6.085	8.8970003	-0.75099999
168	1	7	-0.207357	-6.5409999	9.165	0.528
169	1	7	-0.207357	-5.5320001	10.061	-1.253
170	1	7	-0.207357	-5.1059999	7.9229999	-0.68000001
171	1	2	-0.056134	-8.2110004	7.6739998	-1.101
172	1	3	0.206402	-8.1999998	7.4310002	-0.045000002
173	1	2	-0.113702	-11.863	6.6339998	-1.706
174	1	3	0.204087	-12.124	7.4260001	-2.395
175	1	2	-0.40637699	-12.836	5.881	-1.178
176	1	3	0.22183	-13.866	6.0640001	-1.455
177	1	6	0.37299401	-14.546	4.152	0.050000001
178	1	2	0.58779103	9.276	2.664	0.30199999
179	1	9	-0.52578098	9.5609999	2.066	-0.77100003
180	1	2	-0.288573	8.54	1.987	1.385
181	1	2	-0.022552	8.1429996	0.70599997	1.271
182	1	3	0.22249299	8.3529997	0.132	0.377
183	1	2	-0.24453799	7.4070001	0.056000002	2.3729999
184	1	3	0.213259	7.092	-0.97500002	2.2720001
185	1	2	-0.060513001	7.1300001	0.73500001	3.4920001
186	1	3	0.233421	6.5890002	0.241	4.289
187	1	2	-0.21840701	7.559	2.1489999	3.638
188	1	2	0.83878303	7.2449999	2.8870001	4.881
189	1	9	-0.48739001	7.6009998	4.0890002	5.0229998
190	1	10	-0.66513401	6.5500002	2.256	5.9089999
191	1	11	0.41795501	6.3280001	2.7490001	6.7659998
192	1	2	0.073112004	8.2309999	2.737	2.628
193	1	3	0.25016299	8.5550003	3.7679999	2.7090001

Bonds

1	1	1	2
2	2	1	81
3	3	1	96
4	4	2	3
5	4	2	79
6	5	3	4
7	4	3	5
8	5	5	6
9	4	5	7
10	6	7	8
11	4	7	77
12	4	8	9
13	4	8	75
14	5	9	10
15	4	9	11
16	5	11	12
17	4	11	13
18	7	13	14
19	4	13	70
20	7	14	15
21	4	15	16
22	4	15	68
23	5	16	17
24	4	16	18
25	5	18	19
26	4	18	20
27	8	20	21
28	4	20	66
29	8	21	22
30	9	21	58
31	9	21	62
32	4	22	23
33	4	22	56
34	5	23	24
35	4	23	25
36	5	25	26
37	4	25	27
38	7	27	28
39	4	27	54
40	7	28	29
41	4	29	30
42	4	29	49
43	5	30	31
44	4	30	32
45	5	32	33
46	4	32	34
47	6	34	35
48	4	34	47
49	4	35	36
50	4	35	45
51	5	36	37
52	4	36	38
53	5	38	39
54	4	38	40
55	1	40	41
56	4	40	43
57	2	41	42
58	10	41	82
59	5	43	44
60	4	43	45
61	5	45	46
62	5	47	48
63	4	47	49
64	8	49	50
65	11	50	51
66	11	50	52
67	11	50	53
68	5	54	55
69	4	54	56
70	5	56	57
71	12	58	59
72	12	58	60
73	12	58	61
74	12	62	63
75	12	62	64
76	12	62	65
77	5	66	67
78	4	66	68
79	5	68	69
80	8	70	71
81	4	70	75
82	11	71	72
83	11	71	73
84	11	71	74
85	5	75	76
86	5	77	78
87	4	77	79
88	5	79	80
89	13	82	83
90	6	82	84
91	4	84	85
92	4	84	94
93	5	85	86
94	4	85	87
95	5	87	88
96	4	87	89
97	5	89	90
98	4	89	91
99	6	91	92
100	4	91	94
101	13	92	93
102	6	92	178
103	5	94	95
104	1	96	97
105	2	96	177
106	4	97	98
107	4	97	175
108	5	98	99
109	4	98	100
110	5	100	101
111	4	100	102
112	6	102	103
113	4	102	173
114	4	103	104
115	4	103	171
116	5	104	105
117	4	104	106
118	5	106	107
119	4	106	108
120	7	108	109
121	4	108	166
122	7	109	110
123	4	110	111
124	4	110	164
125	5	111	112
126	4	111	113
127	5	113	114
128	4	113	115
129	8	115	116
130	4	115	162
131	8	116	117
132	9	116	154
133	9	116	158
134	4	117	118
135	4	117	152
136	5	118	119
137	4	118	120
138	5	120	121
139	4	120	122
140	7	122	123
141	4	122	150
142	7	123	124
143	4	124	125
144	4	124	145
145	5	125	126
146	4	125	127
147	5	127	128
148	4	127	129
149	6	129	130
150	4	129	143
151	4	130	131
152	4	130	141
153	5	131	132
154	4	131	133
155	5	133	134
156	4	133	135
157	1	135	136
158	4	135	139
159	2	136	137
160	2	136	138
161	5	139	140
162	4	139	141
163	5	141	142
164	5	143	144
165	4	143	145
166	8	145	146
167	11	146	147
168	11	146	148
169	11	146	149
170	5	150	151
171	4	150	152
172	5	152	153
173	12	154	155
174	12	154	156
175	12	154	157
176	12	158	159
177	12	158	160
178	12	158	161
179	5	162	163
180	4	162	164
181	5	164	165
182	8	166	167
183	4	166	171
184	11	167	168
185	11	167	169
186	11	167	170
187	5	171	172
188	5	173	174
189	4	173	175
190	5	175	176
191	13	178	179
192	6	178	180
193	4	180	181
194	4	180	192
195	5	181	182
196	4	181	183
197	5	183	184
198	4	183	185
199	5	185	186
200	4	185	187
201	6	187	188
202	4	187	192
203	13	188	189
204	14	188	190
205	15	190	191
206	5	192	193

Angles

1	1	8	9	11
2	6	116	154	156
3	1	129	130	131
4	1	124	145	143
5	1	102	103	171
6	2	1	96	97
7	1	13	70	75
8	1	102	103	104
9	4	114	113	115
10	1	106	108	109
11	1	123	122	150
12	1	27	54	56
13	6	154	116	158
14	4	163	162	164
15	6	168	167	170
16	1	21	20	66
17	6	21	58	59
18	4	31	30	32
19	7	63	62	64
20	1	96	97	98
21	1	15	16	18
22	4	88	87	89
23	4	22	56	57
24	1	29	30	32
25	1	35	45	43
26	4	110	111	112
27	1	124	125	127
28	1	97	98	100
29	1	5	7	8
30	1	129	143	145
31	3	42	41	82
32	1	7	8	9
33	4	36	38	39
34	3	81	1	96
35	6	166	167	169
36	4	184	183	185
37	1	123	124	125
38	4	139	141	142
39	1	85	87	89
40	6	116	158	160
41	1	131	133	135
42	1	30	29	49
43	6	116	154	155
44	1	7	77	79
45	4	78	77	79
46	4	19	18	20
47	4	110	164	165
48	5	188	190	191
49	1	106	108	166
50	4	140	139	141
51	1	103	104	106
52	4	66	68	69
53	4	121	120	122
54	4	90	89	91
55	1	36	35	45
56	1	109	110	111
57	4	44	43	45
58	4	27	54	55
59	4	67	66	68
60	1	89	91	92
61	1	3	2	79
62	1	124	145	146
63	6	148	146	149
64	4	9	11	12
65	6	21	62	63
66	1	185	187	188
67	1	92	91	94
68	1	115	162	164
69	5	122	123	124
70	1	96	97	175
71	4	162	164	165
72	1	14	13	70
73	1	98	100	102
74	1	1	2	79
75	4	15	16	17
76	4	3	5	6
77	4	112	111	113
78	4	102	173	174
79	6	147	146	149
80	1	15	68	66
81	1	22	23	25
82	7	155	154	157
83	1	7	8	75
84	1	16	15	68
85	6	169	167	170
86	1	13	70	71
87	1	28	29	30
88	4	97	98	99
89	1	11	13	70
90	6	58	21	62
91	1	82	84	94
92	1	18	20	21
93	1	109	110	164
94	1	111	113	115
95	4	37	36	38
96	4	86	85	87
97	6	166	167	168
98	1	130	141	139
99	4	48	47	49
100	4	43	45	46
101	6	116	158	159
102	4	131	133	134
103	1	29	49	50
104	4	35	45	46
105	4	174	173	175
106	4	7	77	78
107	6	49	50	53
108	1	38	40	43
109	1	34	35	36
110	1	20	66	68
111	1	187	188	190
112	1	14	15	16
113	4	103	104	105
114	1	117	118	120
115	7	60	58	61
116	4	26	25	27
117	6	117	116	158
118	4	173	175	176
119	4	128	127	129
120	1	91	92	178
121	1	120	122	123
122	1	133	135	139
123	1	120	122	150
124	3	1	96	177
125	1	130	129	143
126	4	144	143	145
127	1	28	27	54
128	4	101	100	102
129	6	51	50	53
130	1	180	181	183
131	6	70	71	73
132	1	30	32	34
133	1	34	47	49
134	1	71	70	75
135	4	115	162	163
136	1	116	115	162
137	4	87	89	90
138	4	183	185	186
139	1	2	3	5
140	1	181	180	192
141	4	12	11	13
142	1	133	135	136
143	1	8	75	70
144	4	98	100	101
145	2	40	41	82
146	1	136	135	139
147	1	179	178	180
148	2	2	1	96
149	6	147	146	148
150	1	103	102	173
151	3	40	41	42
152	4	22	23	24
153	1	29	49	47
154	4	8	9	10
155	7	155	154	156
156	4	150	152	153
157	7	59	58	61
158	6	21	58	61
159	1	167	166	171
160	4	111	113	114
161	6	52	50	53
162	3	135	136	138
163	1	21	22	23
164	7	159	158	161
165	6	22	21	62
166	4	166	171	172
167	4	77	79	80
168	1	118	120	122
169	1	5	7	77
170	4	40	43	44
171	4	55	54	56
172	6	72	71	74
173	4	15	68	69
174	6	145	146	149
175	4	84	94	95
176	4	105	104	106
177	1	100	102	103
178	1	187	188	189
179	4	117	118	119
180	1	181	183	185
181	4	33	32	34
182	1	25	27	28
183	4	8	75	76
184	1	28	29	49
185	1	104	106	108
186	4	130	141	142
187	3	97	96	177
188	6	168	167	169
189	1	123	124	145
190	6	51	50	52
191	6	116	154	157
192	1	92	178	180
193	1	113	115	116
194	4	180	181	182
195	1	131	130	141
196	6	70	71	72
197	4	151	150	152
198	1	103	171	166
199	4	132	131	133
200	1	127	129	130
201	1	2	79	77
202	6	73	71	74
203	4	2	3	4
204	1	85	84	94
205	3	137	136	138
206	1	135	139	141
207	1	89	91	94
208	1	21	22	56
209	4	29	30	31
210	4	124	125	126
211	7	59	58	60
212	4	54	56	57
213	4	24	23	25
214	6	21	62	65
215	6	21	58	60
216	1	108	166	171
217	1	111	110	164
218	6	20	21	22
219	4	129	143	144
220	1	23	25	27
221	3	135	136	137
222	6	117	116	154
223	1	14	15	68
224	1	98	97	175
225	7	63	62	65
226	4	70	75	76
227	1	125	127	129
228	1	84	85	87
229	6	115	116	158
230	4	85	87	88
231	6	72	71	73
232	1	118	117	152
233	3	2	1	81
234	6	145	146	148
235	1	35	36	38
236	1	34	35	45
237	4	103	171	172
238	4	187	192	193
239	1	143	145	146
240	1	127	129	143
241	1	104	103	171
242	1	178	180	192
243	1	93	92	178
244	6	166	167	170
245	6	20	21	62
246	4	104	106	107
247	7	160	158	161
248	6	116	158	161
249	1	113	115	162
250	1	25	27	54
251	1	100	102	173
252	1	92	178	179
253	4	117	152	153
254	7	64	62	65
255	1	32	34	35
256	4	39	38	40
257	6	22	21	58
258	6	115	116	117
259	4	10	9	11
260	4	135	139	140
261	1	91	92	93
262	1	9	11	13
263	4	17	16	18
264	6	21	62	64
265	1	84	94	91
266	4	2	79	80
267	4	119	118	120
268	4	23	25	26
269	1	41	82	84
270	4	4	3	5
271	4	99	98	100
272	4	125	127	128
273	1	3	5	7
274	4	84	85	86
275	4	6	5	7
276	4	91	94	95
277	1	102	173	175
278	1	97	175	173
279	1	122	150	152
280	1	180	192	187
281	1	117	152	150
282	4	182	181	183
283	6	145	146	147
284	4	35	36	37
285	6	49	50	52
286	4	126	125	127
287	4	20	66	67
288	1	8	7	77
289	1	47	49	50
290	1	130	131	133
291	5	13	14	15
292	1	125	124	145
293	1	16	18	20
294	1	188	187	192
295	1	9	8	75
296	4	30	32	33
297	4	34	47	48
298	4	107	106	108
299	1	35	34	47
300	1	108	166	167
301	8	189	188	190
302	6	115	116	154
303	1	23	22	56
304	4	134	133	135
305	1	22	56	54
306	6	70	71	74
307	5	108	109	110
308	1	129	130	141
309	1	116	117	152
310	7	156	154	157
311	1	32	34	47
312	4	186	185	187
313	1	87	89	91
314	1	178	180	181
315	1	183	185	187
316	1	1	2	3
317	1	41	82	83
318	7	159	158	160
319	1	82	84	85
320	4	118	120	121
321	1	18	20	66
322	6	20	21	58
323	1	110	111	113
324	4	122	150	151
325	1	11	13	14
326	1	83	82	84
327	1	185	187	192
328	6	49	50	51
329	1	110	164	162
330	1	38	40	41
331	1	116	117	118
332	4	180	192	193
333	4	181	183	184
334	4	130	131	132
335	1	41	40	43
336	1	36	38	40
337	1	109	108	166
338	1	40	43	45
339	5	27	28	29
340	4	16	18	19
341	4	97	175	176

Dihedrals

1	1	10	9	11	12
2	1	21	20	66	68
3	1	131	133	135	139
4	2	79	2	1	81
5	1	1	2	79	80
6	1	127	125	124	145
7	1	100	98	97	175
8	1	180	192	187	188
9	15	58	21	62	64
10	1	109	108	166	171
11	1	126	125	127	129
12	12	179	178	180	192
13	12	94	91	92	178
14	1	23	22	56	57
15	1	98	97	175	173
16	1	113	115	162	164
17	7	22	21	62	65
18	7	22	21	58	60
19	1	96	97	175	173
20	1	112	111	113	114
21	1	35	34	47	48
22	12	93	92	178	180
23	7	20	21	62	63
24	10	42	41	82	84
24	11	42	41	82	84
25	1	22	23	25	27
26	1	181	183	185	187
27	1	8	9	11	13
28	1	128	127	129	143
29	5	29	28	27	54
30	4	5	7	8	75
31	6	124	145	146	148
32	1	35	36	38	40
33	1	96	97	98	100
34	1	102	103	104	106
35	7	115	116	158	161
36	1	105	104	103	171
37	1	183	181	180	192
38	1	2	79	77	78
39	1	34	35	36	37
40	1	98	100	102	103
41	6	108	166	167	170
42	6	118	117	116	158
43	1	105	104	106	107
44	1	21	22	23	24
45	1	103	102	173	174
46	1	101	100	102	173
47	1	22	56	54	27
48	6	74	71	70	75
49	15	154	116	158	160
50	1	3	2	79	77
51	1	55	54	56	57
52	4	100	102	103	104
53	1	33	32	34	35
54	1	132	131	130	141
55	17	189	188	190	191
55	18	189	188	190	191
56	1	32	34	47	49
57	1	85	84	94	91
58	2	3	2	1	81
59	1	14	15	16	18
60	4	32	34	35	45
61	1	1	2	79	77
62	12	83	82	84	85
63	1	86	85	87	89
64	1	1	2	3	4
65	1	131	130	141	142
66	1	41	40	43	45
67	6	47	49	50	52
68	1	130	129	143	145
69	1	6	5	7	77
70	5	25	27	28	29
71	1	110	164	162	163
72	15	60	58	21	62
73	1	112	111	110	164
74	1	23	22	56	54
75	1	86	85	84	94
76	1	3	5	7	77
77	1	134	133	135	136
78	1	118	120	122	123
79	1	132	131	133	134
80	1	26	25	27	54
81	1	118	120	122	150
82	1	37	36	38	40
83	6	143	145	146	147
84	1	167	166	171	172
85	12	92	178	180	181
86	1	7	77	79	80
87	1	135	139	141	142
88	1	21	22	56	54
89	5	15	14	13	70
90	1	35	45	43	40
91	1	25	27	54	56
92	2	137	136	135	139
93	1	24	23	25	27
94	1	90	89	91	94
95	1	100	102	173	175
96	1	113	115	162	163
97	6	13	70	71	74
98	1	34	35	45	46
99	1	125	127	129	130
100	1	111	110	164	165
101	1	117	152	150	122
102	1	181	183	185	186
103	1	8	7	77	79
104	1	8	9	11	12
105	1	35	36	38	39
106	6	117	116	115	162
107	1	130	131	133	135
108	1	186	185	187	188
109	1	16	18	20	66
110	1	98	97	175	176
111	1	126	125	124	145
112	1	4	3	5	6
113	1	97	98	100	102
114	1	78	77	79	80
115	1	2	3	5	6
116	1	7	8	9	10
117	15	61	58	21	62
118	2	42	41	40	43
119	7	20	21	58	61
120	1	4	3	2	79
121	6	58	21	20	66
122	1	98	100	102	173
123	1	129	130	131	132
124	1	181	180	192	187
125	1	32	34	47	48
126	6	20	21	22	23
127	1	121	120	122	123
128	1	86	85	87	88
129	1	121	120	122	150
130	1	38	40	43	45
131	12	179	178	180	181
132	15	155	154	116	158
133	6	115	116	117	152
134	1	109	108	166	167
135	6	56	22	21	58
136	1	8	75	70	13
137	1	116	117	118	120
138	1	31	30	29	49
139	1	144	143	145	146
140	5	122	123	124	125
141	1	34	35	45	43
142	7	117	116	154	155
143	12	185	187	188	190
144	1	130	141	139	135
145	1	18	16	15	68
146	1	111	110	164	162
147	1	3	2	79	80
148	1	163	162	164	165
149	1	136	135	139	140
150	1	15	68	66	67
151	1	29	49	47	48
152	1	106	108	166	171
153	1	178	180	192	193
154	6	154	116	115	162
155	1	117	118	120	122
156	1	7	8	75	76
157	6	118	117	116	154
158	6	115	116	117	118
159	1	25	27	54	55
160	6	152	117	116	154
161	2	1	96	97	175
162	6	56	22	21	62
163	5	120	122	123	124
164	1	87	89	91	94
165	1	39	38	40	43
166	1	100	102	173	174
167	1	99	98	100	102
168	1	29	30	32	34
169	1	10	9	8	75
170	5	122	123	124	145
171	1	2	79	77	7
172	1	123	124	145	146
173	1	8	7	77	78
174	7	115	116	154	156
175	1	21	22	56	57
176	1	120	122	150	151
177	1	114	113	115	162
178	1	180	181	183	185
179	1	110	111	113	114
180	6	152	117	116	158
181	1	106	104	103	171
182	2	38	40	41	42
183	1	113	111	110	164
184	1	107	106	108	166
185	6	20	21	22	56
186	4	127	129	130	141
187	4	100	102	103	171
188	7	20	21	62	65
189	1	129	143	145	146
190	12	89	91	92	178
191	6	158	116	115	162
192	1	88	87	89	91
193	6	113	115	116	158
194	1	102	103	171	166
195	1	178	180	181	183
196	3	2	1	96	97
197	1	28	29	30	32
198	1	103	104	106	107
199	1	134	133	135	139
200	6	22	21	20	66
201	1	28	27	54	56
202	6	29	49	50	52
203	1	38	40	43	44
204	1	133	131	130	141
205	2	98	97	96	177
206	6	72	71	70	75
207	1	124	125	127	128
208	1	119	118	120	122
209	7	117	116	158	159
210	15	157	154	116	158
211	1	11	13	70	75
212	12	91	92	178	180
213	1	123	124	145	143
214	12	83	82	84	94
215	1	123	122	150	152
216	1	21	20	66	67
217	15	59	58	21	62
218	1	97	175	173	174
219	1	118	117	152	153
220	1	117	118	120	121
221	1	102	173	175	176
222	1	111	113	115	116
223	1	129	130	141	142
224	1	103	171	166	167
225	15	58	21	62	63
226	12	41	82	84	94
227	6	73	71	70	75
228	1	126	125	127	128
229	4	127	129	130	131
230	7	22	21	62	64
231	7	22	21	58	59
232	6	169	167	166	171
233	1	14	15	68	69
234	12	93	92	178	179
235	2	1	96	97	98
236	1	31	30	32	34
237	13	42	41	82	83
237	14	42	41	82	83
238	1	22	23	25	26
239	10	40	41	82	84
239	11	40	41	82	84
240	1	123	124	125	127
241	4	36	35	34	47
242	1	24	23	22	56
243	6	124	145	146	147
244	1	104	106	108	109
245	6	113	115	116	117
246	1	96	97	98	99
247	1	10	9	11	13
248	6	143	145	146	149
249	1	102	103	104	105
250	7	115	116	158	160
251	7	115	116	154	155
252	1	5	3	2	79
253	6	108	166	167	169
254	1	23	25	27	28
255	1	109	110	164	165
256	1	119	118	117	152
257	1	32	30	29	49
258	1	14	13	70	75
259	1	112	111	113	115
260	1	35	34	47	49
261	3	81	1	96	97
262	1	107	106	108	109
263	1	127	129	143	145
264	1	18	20	66	68
265	15	154	116	158	159
266	1	151	150	152	153
267	1	117	152	150	151
268	1	122	150	152	153
269	2	43	40	41	82
270	1	16	18	20	21
271	1	116	115	162	164
272	1	14	15	16	17
273	5	108	109	110	111
274	6	29	49	50	51
275	1	106	108	166	167
276	1	118	117	152	150
277	1	124	145	143	144
278	1	129	130	141	139
279	1	85	87	89	91
280	1	41	40	43	44
281	1	105	104	106	108
282	6	47	49	50	51
283	1	130	129	143	144
284	1	110	164	162	115
285	1	21	22	23	25
286	1	15	68	66	20
287	1	103	102	173	175
288	5	27	28	29	30
289	12	190	188	187	192
290	1	183	185	187	188
291	1	14	15	68	66
292	1	30	29	49	47
293	1	128	127	129	130
294	1	38	36	35	45
295	5	13	14	15	16
296	1	19	18	20	21
297	1	17	16	15	68
298	1	33	32	34	47
299	1	36	38	40	41
300	1	37	36	35	45
301	1	125	127	129	143
302	1	123	122	150	151
303	1	130	141	139	140
304	1	28	29	49	50
305	1	37	36	38	39
306	5	106	108	109	110
307	1	22	56	54	55
308	6	23	22	21	58
309	1	1	2	3	5
310	1	99	98	97	175
311	1	109	110	111	113
312	1	24	23	25	26
313	1	109	110	164	162
314	1	12	11	13	14
315	1	20	66	68	69
316	1	27	54	56	57
317	6	13	70	71	73
318	7	22	21	62	63
319	1	29	49	47	34
320	1	115	162	164	165
321	5	11	13	14	15
322	1	183	185	187	192
323	1	36	35	45	46
324	7	117	116	154	157
325	1	30	32	34	35
326	2	133	135	136	138
327	1	104	106	108	166
328	8	40	41	82	83
328	9	40	41	82	83
329	1	123	124	125	126
330	6	113	115	116	154
331	1	92	91	94	95
332	6	143	145	146	148
333	1	188	187	192	193
334	1	5	7	77	79
335	5	108	109	110	164
336	7	115	116	158	159
337	1	9	8	75	70
338	6	23	22	21	62
339	2	38	40	41	82
340	1	15	16	18	20
341	6	108	166	167	168
342	1	130	131	133	134
343	1	97	98	100	101
344	4	104	103	102	173
345	1	16	15	68	66
346	1	11	13	70	71
347	1	182	181	180	192
348	1	127	129	143	144
349	1	18	20	66	67
350	7	20	21	58	60
351	2	175	97	96	177
352	1	131	133	135	136
353	1	125	124	145	143
354	1	40	43	45	46
355	1	23	25	27	54
356	1	28	29	49	47
357	1	180	192	187	185
358	1	116	115	162	163
359	1	133	135	139	141
360	1	181	180	192	193
361	1	67	66	68	69
362	1	116	117	152	150
363	1	85	87	89	90
364	1	11	9	8	75
365	1	140	139	141	142
366	1	84	85	87	89
367	1	116	117	118	119
368	1	4	3	5	7
369	12	189	188	187	192
370	1	36	35	45	43
371	3	2	1	96	177
372	1	2	3	5	7
373	12	185	187	188	189
374	2	79	2	1	96
375	4	9	8	7	77
376	1	87	85	84	94
377	1	129	130	131	133
378	1	6	5	7	8
379	1	9	8	75	76
380	1	44	43	45	46
381	1	124	145	143	129
382	12	89	91	92	93
383	1	3	5	7	8
384	4	32	34	35	36
385	1	17	16	18	20
386	1	109	110	111	112
387	15	156	154	116	158
388	1	34	47	49	50
389	4	171	103	102	173
390	12	93	92	91	94
391	4	75	8	7	77
392	1	82	84	85	87
393	1	90	89	91	92
394	4	45	35	34	47
395	6	13	70	71	72
396	1	99	98	100	101
397	1	184	183	185	187
398	7	117	116	158	161
399	12	41	82	84	85
400	1	7	8	9	11
401	1	182	181	183	185
402	1	14	13	70	71
403	1	29	30	32	33
404	1	30	29	49	50
405	7	117	116	154	156
406	2	138	136	135	139
407	2	133	135	136	137
408	1	136	135	139	141
409	5	124	123	122	150
410	6	18	20	21	22
411	1	102	103	171	172
412	1	178	180	192	187
413	1	104	103	171	166
414	1	5	7	77	78
415	1	71	70	75	76
416	1	85	84	94	95
417	5	27	28	29	49
418	1	108	166	171	172
419	1	15	16	18	19
420	1	25	23	22	56
421	1	180	181	183	184
422	1	174	173	175	176
423	6	168	167	166	171
424	15	58	21	62	65
425	6	18	20	21	58
426	5	110	109	108	166
427	7	22	21	58	61
428	1	30	32	34	47
429	6	62	21	20	66
430	7	20	21	62	64
431	1	84	94	91	92
432	7	20	21	58	59
433	1	101	100	102	103
434	1	82	84	94	91
435	2	3	2	1	96
436	1	88	87	89	90
437	1	120	118	117	152
438	6	124	145	146	149
439	1	178	180	181	182
440	1	28	29	30	31
441	7	115	116	154	157
442	5	13	14	15	68
443	4	141	130	129	143
444	1	28	27	54	55
445	1	13	70	75	76
446	1	120	122	150	152
447	1	133	135	139	140
448	1	34	35	36	38
449	12	92	178	180	192
450	1	114	113	115	116
451	1	89	91	94	95
452	1	35	45	43	44
453	1	131	130	141	139
454	4	131	130	129	143
455	1	7	8	75	70
456	6	18	20	21	62
457	1	110	111	113	115
458	3	81	1	96	177
459	1	9	11	13	14
460	1	97	175	173	102
461	1	84	85	87	88
462	4	5	7	8	9
463	1	96	97	175	176
464	1	119	118	120	121
465	1	185	187	192	193
466	1	16	15	68	69
467	1	9	11	13	70
468	12	91	92	178	179
469	15	154	116	158	161
470	1	82	84	94	95
471	1	125	124	145	146
472	1	104	103	171	172
473	1	103	104	106	108
474	1	19	18	20	66
475	6	29	49	50	53
476	1	111	113	115	162
477	1	116	117	152	153
478	1	17	16	18	19
479	6	170	167	166	171
480	6	47	49	50	53
481	1	26	25	27	28
482	1	82	84	85	86
483	1	186	185	187	192
484	1	103	171	166	108
485	1	124	125	127	129
486	1	87	89	91	92
487	1	39	38	40	41
488	1	184	183	185	186
489	7	117	116	158	160
490	1	48	47	49	50
491	1	182	181	183	184
492	1	31	30	32	33
493	16	187	188	190	191
494	1	8	75	70	71
495	1	12	11	13	70
496	1	84	94	91	89
497	1	132	131	133	135
498	1	36	38	40	43

Impropers

2	1	120	118	121	122
3	1	3	2	4	5
4	1	22	23	56	21
5	1	130	131	141	129
9	1	49	29	47	50
15	1	56	57	22	54
17	2	96	1	97	177
18	1	117	152	116	118
20	1	124	145	123	125
24	3	188	187	189	190
25	1	40	43	38	41
27	1	49	50	29	47
28	1	70	13	71	75
29	1	85	84	86	87
32	1	152	150	153	117
38	1	135	139	133	136
39	1	18	19	20	16
42	1	92	178	91	93
43	1	3	5	2	4
46	1	29	49	28	30
50	1	131	133	130	132
52	1	166	167	171	108
54	1	171	103	166	172
55	1	68	66	69	15
59	1	129	143	127	130
67	1	82	83	84	41
69	1	94	95	84	91
75	1	66	68	20	67
76	1	98	99	100	97
79	1	20	21	66	18
82	1	94	84	91	95
86	1	102	173	100	103
98	1	113	115	111	114
106	1	11	12	13	9
111	1	143	144	145	129
117	1	103	171	102	104
121	2	136	138	135	137
122	1	187	192	185	188
123	1	3	4	5	2
125	1	187	188	192	185
127	1	49	47	50	29
128	1	68	69	15	66
132	1	115	113	116	162
133	1	181	183	180	182
134	1	13	11	14	70
139	1	171	166	172	103
141	1	5	6	7	3
142	1	77	78	79	7
147	1	100	98	101	102
149	1	25	27	23	26
152	1	40	41	43	38
155	1	84	94	82	85
156	1	54	55	56	27
157	1	111	110	112	113
160	1	115	162	113	116
165	1	82	84	41	83
169	1	135	133	136	139
177	1	118	117	119	120
178	1	32	34	30	33
179	1	124	123	125	145
187	1	97	175	96	98
189	1	104	103	105	106
191	2	136	137	138	135
192	1	56	54	57	22